
                                 *****************
                                 * O   R   C   A *
                                 *****************

           --- An Ab Initio, DFT and Semiempirical electronic structure package ---

                  #######################################################
                  #                        -***-                        #
                  #          Department of theory and spectroscopy      #
                  #               Directorship: Frank Neese             #
                  #        Max Planck Institute fuer Kohlenforschung    #
                  #                Kaiser Wilhelm Platz 1               #
                  #                 D-45470 Muelheim/Ruhr               #
                  #                      Germany                        #
                  #                                                     #
                  #                  All rights reserved                #
                  #                        -***-                        #
                  #######################################################


                         Program Version 4.1.0  - RELEASE  -


 With contributions from (in alphabetic order):
   Daniel Aravena         : Magnetic Properties
   Michael Atanasov       : Ab Initio Ligand Field Theory
   Alexander A. Auer      : GIAO ZORA
   Ute Becker             : Parallelization
   Giovanni Bistoni       : ED, Open-shell LED
   Martin Brehm           : Molecular dynamics
   Dmytro Bykov           : SCF Hessian
   Vijay G. Chilkuri      : MRCI spin determinant printing
   Dipayan Datta          : RHF DLPNO-CCSD density
   Achintya Kumar Dutta   : EOM-CC, STEOM-CC
   Dmitry Ganyushin       : Spin-Orbit,Spin-Spin,Magnetic field MRCI
   Miquel Garcia          : C-PCM Hessian
   Yang Guo               : DLPNO-NEVPT2, CIM, IAO-localization
   Andreas Hansen         : Spin unrestricted coupled pair/coupled cluster methods
   Benjamin Helmich-Paris : CASSCF linear response (MC-RPA)
   Lee Huntington         : MR-EOM, pCC
   Robert Izsak           : Overlap fitted RIJCOSX, COSX-SCS-MP3, EOM
   Christian Kollmar      : KDIIS, OOCD, Brueckner-CCSD(T), CCSD density
   Simone Kossmann        : Meta GGA functionals, TD-DFT gradient, OOMP2, MP2 Hessian
   Martin Krupicka        : AUTO-CI
   Lucas Lang             : DCDCAS
   Dagmar Lenk            : GEPOL surface, SMD
   Dimitrios Liakos       : Extrapolation schemes; parallel MDCI
   Dimitrios Manganas     : ROCIS; embedding schemes
   Dimitrios Pantazis     : SARC Basis sets
   Taras Petrenko         : DFT Hessian,TD-DFT gradient, ASA, ECA, R-Raman, ABS, FL, XAS/XES, NRVS
   Peter Pinski           : DLPNO-MP2, DLPNO-MP2 Gradient
   Christoph Reimann      : Effective Core Potentials
   Marius Retegan         : Local ZFS, SOC
   Christoph Riplinger    : Optimizer, TS searches, QM/MM, DLPNO-CCSD(T), (RO)-DLPNO pert. Triples
   Tobias Risthaus        : Range-separated hybrids, TD-DFT gradient, RPA, STAB
   Michael Roemelt        : Restricted open shell CIS
   Masaaki Saitow         : Open-shell DLPNO
   Barbara Sandhoefer     : DKH picture change effects
   Avijit Sen             : IP-ROCIS
   Kantharuban Sivalingam : CASSCF convergence, NEVPT2, FIC-MRCI
   Bernardo de Souza      : ESD, SOC TD-DFT
   Georgi Stoychev        : AutoAux, RI-MP2 NMR
   Willem Van den Heuvel  : Paramagnetic NMR
   Boris Wezisla          : Elementary symmetry handling
   Frank Wennmohs         : Technical directorship


 We gratefully acknowledge several colleagues who have allowed us to
 interface, adapt or use parts of their codes:
   Stefan Grimme, W. Hujo, H. Kruse,             : VdW corrections, initial TS optimization,
                  C. Bannwarth                     DFT functionals, gCP, sTDA/sTD-DF
   Ed Valeev                                     : LibInt (2-el integral package), F12 methods
   Garnet Chan, S. Sharma, J. Yang, R. Olivares  : DMRG
   Ulf Ekstrom                                   : XCFun DFT Library
   Mihaly Kallay                                 : mrcc  (arbitrary order and MRCC methods)
   Andreas Klamt, Michael Diedenhofen            : otool_cosmo (COSMO solvation model)
   Jiri Pittner, Ondrej Demel                    : Mk-CCSD
   Frank Weinhold                                : gennbo (NPA and NBO analysis)
   Christopher J. Cramer and Donald G. Truhlar   : smd solvation model
   Lars Goerigk                                  : TD-DFT with DH, B97 family of functionals
   V. Asgeirsson, H. Jonsson                     : NEB implementation
   FAccTs GmbH                                   : IRC, NEB, NEB-TS, Multilevel


 Your calculation uses the libint2 library for the computation of 2-el integrals
 For citations please refer to: http://libint.valeyev.net

 This ORCA versions uses:
   CBLAS   interface :  Fast vector & matrix operations
   LAPACKE interface :  Fast linear algebra routines
   SCALAPACK package :  Parallel linear algebra routines


----- Orbital basis set information -----
Your calculation utilizes the basis: 3-21G
   H-Ne       : J. S. Binkley, J. A. Pople and W. J. Hehre, J. Am. Chem. Soc. 102 939 (1980).
   Na-Ar      : M. S. Gordon, J. S. Binkley, J. A. Pople, W. J. Pietro and W.J. Hehre, J. Am. Chem. Soc. 104, 2797 (1983).
   K-Ca, Ga-Kr: K. D. Dobbs and W. J. Hehre, J. Comput. Chem. 7, 359 (1986).
   Sc-Zn      : K. D. Dobbs and W. J. Hehre, J. Comput. Chem. 8, 861 (1987).
   Y-Cd       : K. D. Dobbs and W. J. Hehre, J. Comput. Chem. 8, 880 (1987).

================================================================================
                                        WARNINGS
                       Please study these warnings very carefully!
================================================================================


INFO   : the flag for use of LIBINT has been found!

================================================================================
                                       INPUT FILE
================================================================================
NAME = 04_dmso_hf_orca_freq.inp
|  1> ! HF 3-21g freq PAL4
|  2> 
|  3> %maxcore 2000
|  4> 
|  5> *xyz 0 1
|  6>  S                 -0.73346859    0.74753641   -0.00000076
|  7>  C                 -0.01990615   -0.24292766    1.40649866
|  8>  C                 -0.01992871   -0.24295247   -1.40649286
|  9>  O                  0.12654324    2.18842458   -0.00001888
| 10>  H                 -0.33046157    0.24050520   -2.31906748
| 11>  H                 -0.40195048   -1.25024501   -1.35755605
| 12>  H                  1.05575023   -0.21534558   -1.32482144
| 13>  H                 -0.40187117   -1.25024119    1.35754707
| 14>  H                 -0.33047758    0.24050221    2.31907471
| 15>  H                  1.05577177   -0.21525650    1.32483504
| 16> *
| 17> 
| 18>                          ****END OF INPUT****
================================================================================

                       ****************************
                       * Single Point Calculation *
                       ****************************

---------------------------------
CARTESIAN COORDINATES (ANGSTROEM)
---------------------------------
  S     -0.733469    0.747536   -0.000001
  C     -0.019906   -0.242928    1.406499
  C     -0.019929   -0.242952   -1.406493
  O      0.126543    2.188425   -0.000019
  H     -0.330462    0.240505   -2.319067
  H     -0.401950   -1.250245   -1.357556
  H      1.055750   -0.215346   -1.324821
  H     -0.401871   -1.250241    1.357547
  H     -0.330478    0.240502    2.319075
  H      1.055772   -0.215256    1.324835

----------------------------
CARTESIAN COORDINATES (A.U.)
----------------------------
  NO LB      ZA    FRAG     MASS         X           Y           Z
   0 S    16.0000    0    32.060   -1.386055    1.412639   -0.000001
   1 C     6.0000    0    12.011   -0.037617   -0.459067    2.657897
   2 C     6.0000    0    12.011   -0.037660   -0.459114   -2.657886
   3 O     8.0000    0    15.999    0.239132    4.135523   -0.000036
   4 H     1.0000    0     1.008   -0.624482    0.454489   -4.382402
   5 H     1.0000    0     1.008   -0.759576   -2.362621   -2.565409
   6 H     1.0000    0     1.008    1.995079   -0.406944   -2.503550
   7 H     1.0000    0     1.008   -0.759426   -2.362613    2.565392
   8 H     1.0000    0     1.008   -0.624512    0.454483    4.382416
   9 H     1.0000    0     1.008    1.995120   -0.406776    2.503575

--------------------------------
INTERNAL COORDINATES (ANGSTROEM)
--------------------------------
 S      0   0   0     0.000000000000     0.00000000     0.00000000
 C      1   0   0     1.862372424678     0.00000000     0.00000000
 C      1   2   0     1.862371447675    98.08874510     0.00000000
 O      1   2   3     1.678028327089   105.08851352   251.90262404
 H      3   1   2     1.078403640985   106.87761339   181.70170207
 H      3   1   2     1.078412585825   109.07310451    61.86165425
 H      3   1   2     1.079128140297   108.12841331   299.91573794
 H      2   1   3     1.078412760676   109.07328798   298.14240654
 H      2   1   3     1.078403495624   106.87801484   178.30211736
 H      2   1   3     1.079128179366   108.12753106    60.08808567

---------------------------
INTERNAL COORDINATES (A.U.)
---------------------------
 S      0   0   0     0.000000000000     0.00000000     0.00000000
 C      1   0   0     3.519373842008     0.00000000     0.00000000
 C      1   2   0     3.519371995741    98.08874510     0.00000000
 O      1   2   3     3.171013983161   105.08851352   251.90262404
 H      3   1   2     2.037887543285   106.87761339   181.70170207
 H      3   1   2     2.037904446584   109.07310451    61.86165425
 H      3   1   2     2.039256648568   108.12841331   299.91573794
 H      2   1   3     2.037904777003   109.07328798   298.14240654
 H      2   1   3     2.037887268593   106.87801484   178.30211736
 H      2   1   3     2.039256722400   108.12753106    60.08808567

---------------------
BASIS SET INFORMATION
---------------------
There are 4 groups of distinct atoms

 Group   1 Type S   : 9s6p contracted to 4s3p pattern {3321/321}
 Group   2 Type C   : 6s3p contracted to 3s2p pattern {321/21}
 Group   3 Type O   : 6s3p contracted to 3s2p pattern {321/21}
 Group   4 Type H   : 3s contracted to 2s pattern {21}

Atom   0S    basis set group =>   1
Atom   1C    basis set group =>   2
Atom   2C    basis set group =>   2
Atom   3O    basis set group =>   3
Atom   4H    basis set group =>   4
Atom   5H    basis set group =>   4
Atom   6H    basis set group =>   4
Atom   7H    basis set group =>   4
Atom   8H    basis set group =>   4
Atom   9H    basis set group =>   4


           ************************************************************
           *        Program running with 4 parallel MPI-processes     *
           *              working on a common directory               *
           ************************************************************
------------------------------------------------------------------------------
                           ORCA GTO INTEGRAL CALCULATION
------------------------------------------------------------------------------

                         BASIS SET STATISTICS AND STARTUP INFO

 # of primitive gaussian shells          ...   60
 # of primitive gaussian functions       ...   90
 # of contracted shells                  ...   34
 # of contracted basis functions         ...   52
 Highest angular momentum                ...    1
 Maximum contraction depth               ...    3
 Integral package used                   ... LIBINT
 Integral threshhold            Thresh   ...  1.000e-10
 Primitive cut-off              TCut     ...  1.000e-11


------------------------------ INTEGRAL EVALUATION ----------------------------


 * One electron integrals 
 Pre-screening matrix                    ... done
 Shell pair data                         ... done (   0.000 sec)



           ************************************************************
           *        Program running with 4 parallel MPI-processes     *
           *              working on a common directory               *
           ************************************************************
-------------------------------------------------------------------------------
                                 ORCA SCF
-------------------------------------------------------------------------------

------------
SCF SETTINGS
------------
Hamiltonian:
 Ab initio Hamiltonian  Method          .... Hartree-Fock(GTOs)


General Settings:
 Integral files         IntName         .... 04_dmso_hf_orca_freq
 Hartree-Fock type      HFTyp           .... RHF
 Total Charge           Charge          ....    0
 Multiplicity           Mult            ....    1
 Number of Electrons    NEL             ....   42
 Basis Dimension        Dim             ....   52
 Nuclear Repulsion      ENuc            ....    175.4779342460 Eh

Convergence Acceleration:
 DIIS                   CNVDIIS         .... on
   Start iteration      DIISMaxIt       ....    12
   Startup error        DIISStart       ....  0.200000
   # of expansion vecs  DIISMaxEq       ....     5
   Bias factor          DIISBfac        ....   1.050
   Max. coefficient     DIISMaxC        ....  10.000
 Newton-Raphson         CNVNR           .... off
 SOSCF                  CNVSOSCF        .... on
   Start iteration      SOSCFMaxIt      ....   150
   Startup grad/error   SOSCFStart      ....  0.003300
 Level Shifting         CNVShift        .... on
   Level shift para.    LevelShift      ....    0.2500
   Turn off err/grad.   ShiftErr        ....    0.0010
 Zerner damping         CNVZerner       .... off
 Static damping         CNVDamp         .... on
   Fraction old density DampFac         ....    0.7000
   Max. Damping (<1)    DampMax         ....    0.9800
   Min. Damping (>=0)   DampMin         ....    0.0000
   Turn off err/grad.   DampErr         ....    0.1000
 Fernandez-Rico         CNVRico         .... off

SCF Procedure:
 Maximum # iterations   MaxIter         ....   125
 SCF integral mode      SCFMode         .... Direct
   Integral package                     .... LIBINT
 Reset frequency        DirectResetFreq ....    20
 Integral Threshold     Thresh          ....  1.000e-10 Eh
 Primitive CutOff       TCut            ....  1.000e-11 Eh

Convergence Tolerance:
 Convergence Check Mode ConvCheckMode   .... Total+1el-Energy
 Convergence forced     ConvForced      .... 0
 Energy Change          TolE            ....  1.000e-06 Eh
 1-El. energy change                    ....  1.000e-03 Eh
 Orbital Gradient       TolG            ....  5.000e-05
 Orbital Rotation angle TolX            ....  5.000e-05
 DIIS Error             TolErr          ....  1.000e-06


Diagonalization of the overlap matrix:
Smallest eigenvalue                        ... 1.594e-02
Time for diagonalization                   ...    0.165 sec
Threshold for overlap eigenvalues          ... 1.000e-08
Number of eigenvalues below threshold      ... 0
Time for construction of square roots      ...    0.002 sec
Total time needed                          ...    0.167 sec

-------------------
DFT GRID GENERATION
-------------------

General Integration Accuracy     IntAcc      ...  4.340
Radial Grid Type                 RadialGrid  ... Gauss-Chebyshev
Angular Grid (max. acc.)         AngularGrid ... Lebedev-110
Angular grid pruning method      GridPruning ... 3 (G Style)
Weight generation scheme         WeightScheme... Becke
Basis function cutoff            BFCut       ...    1.0000e-10
Integration weight cutoff        WCut        ...    1.0000e-14
Grids for H and He will be reduced by one unit

# of grid points (after initial pruning)     ...  11598 (   0.0 sec)
# of grid points (after weights+screening)   ...  11089 (   0.0 sec)
nearest neighbour list constructed           ...    0.0 sec
Grid point re-assignment to atoms done       ...    0.0 sec
Grid point division into batches done        ...    0.0 sec
Reduced shell lists constructed in    0.0 sec

Total number of grid points                  ...    11089
Total number of batches                      ...      178
Average number of points per batch           ...       62
Average number of grid points per atom       ...     1109
Average number of shells per batch           ...    27.74 (81.59%)
Average number of basis functions per batch  ...    43.74 (84.11%)
Average number of large shells per batch     ...    23.43 (84.48%)
Average number of large basis fcns per batch ...    38.00 (86.88%)
Maximum spatial batch extension              ...  14.75, 10.06, 12.72 au
Average spatial batch extension              ...   0.55,  0.53,  0.53 au

Time for grid setup =    0.111 sec

------------------------------
INITIAL GUESS: MODEL POTENTIAL
------------------------------
Loading Hartree-Fock densities                     ... done
Calculating cut-offs                               ... done
Setting up the integral package                    ... done
Initializing the effective Hamiltonian             ... done
Starting the Coulomb interaction                   ... done (   0.0 sec)
Reading the grid                                   ... done
Mapping shells                                     ... done
Starting the XC term evaluation                    ... done (   0.1 sec)
Transforming the Hamiltonian                       ... done (   0.0 sec)
Diagonalizing the Hamiltonian                      ... done (   0.0 sec)
Back transforming the eigenvectors                 ... done (   0.0 sec)
Now organizing SCF variables                       ... done
                      ------------------
                      INITIAL GUESS DONE (   0.2 sec)
                      ------------------
--------------
SCF ITERATIONS
--------------
ITER       Energy         Delta-E        Max-DP      RMS-DP      [F,P]     Damp
               ***  Starting incremental Fock matrix formation  ***
  0   -548.4079706825   0.000000000000 0.05719381  0.00604071  0.3583859 0.7000
  1   -548.5091336524  -0.101162969818 0.04035623  0.00432621  0.2085865 0.7000
                               ***Turning on DIIS***
  2   -548.5644863085  -0.055352656158 0.02381770  0.00231972  0.1117790 0.7000
  3   -548.7462379362  -0.181751627661 0.04197117  0.00455628  0.0690805 0.0000
  4   -548.6589014808   0.087336455361 0.01985567  0.00167972  0.0135910 0.0000
  5   -548.6774944996  -0.018593018787 0.01635009  0.00142172  0.0110460 0.0000
  6   -548.6637331875   0.013761312069 0.00984860  0.00098574  0.0065483 0.0000
                      *** Initiating the SOSCF procedure ***
                           *** Shutting down DIIS ***
                      *** Re-Reading the Fockian *** 
                      *** Removing any level shift *** 
ITER      Energy       Delta-E        Grad      Rot      Max-DP    RMS-DP
  7   -548.67289903  -0.0091658381  0.002851  0.002851  0.005151  0.000447
               *** Restarting incremental Fock matrix formation ***
  8   -548.67912860  -0.0062295762  0.000843  0.001494  0.001988  0.000165
  9   -548.67913931  -0.0000107043  0.000458  0.001848  0.002610  0.000196
 10   -548.67914379  -0.0000044863  0.000129  0.000218  0.000272  0.000025
                 **** Energy Check signals convergence ****
              ***Rediagonalizing the Fockian in SOSCF/NRSCF***

               *****************************************************
               *                     SUCCESS                       *
               *           SCF CONVERGED AFTER  11 CYCLES          *
               *****************************************************


----------------
TOTAL SCF ENERGY
----------------

Total Energy       :         -548.67914402 Eh          -14930.31855 eV

Components:
Nuclear Repulsion  :          175.47793425 Eh            4774.99735 eV
Electronic Energy  :         -724.15707827 Eh          -19705.31590 eV
One Electron Energy:        -1104.25347154 Eh          -30048.26458 eV
Two Electron Energy:          380.09639328 Eh           10342.94869 eV

Virial components:
Potential Energy   :        -1096.87879579 Eh          -29847.58946 eV
Kinetic Energy     :          548.19965177 Eh           14917.27090 eV
Virial Ratio       :            2.00087467


---------------
SCF CONVERGENCE
---------------

  Last Energy change         ...   -2.2890e-07  Tolerance :   1.0000e-06
  Last MAX-Density change    ...    1.1963e-04  Tolerance :   1.0000e-05
  Last RMS-Density change    ...    9.1615e-06  Tolerance :   1.0000e-06
  Last Orbital Gradient      ...    1.1129e-04  Tolerance :   5.0000e-05
  Last Orbital Rotation      ...    8.2617e-05  Tolerance :   5.0000e-05

             **** THE GBW FILE WAS UPDATED (04_dmso_hf_orca_freq.gbw) ****
             **** DENSITY FILE WAS UPDATED (04_dmso_hf_orca_freq.scfp.tmp) ****
             **** ENERGY FILE WAS UPDATED (04_dmso_hf_orca_freq.en.tmp) ****
----------------
ORBITAL ENERGIES
----------------

  NO   OCC          E(Eh)            E(eV) 
   0   2.0000     -91.400489     -2487.1337 
   1   2.0000     -20.365137      -554.1636 
   2   2.0000     -11.217347      -305.2395 
   3   2.0000     -11.217262      -305.2372 
   4   2.0000      -8.996825      -244.8161 
   5   2.0000      -6.670423      -181.5114 
   6   2.0000      -6.670010      -181.5002 
   7   2.0000      -6.667394      -181.4290 
   8   2.0000      -1.235771       -33.6270 
   9   2.0000      -1.063418       -28.9371 
  10   2.0000      -0.986559       -26.8456 
  11   2.0000      -0.833402       -22.6780 
  12   2.0000      -0.639167       -17.3926 
  13   2.0000      -0.632682       -17.2161 
  14   2.0000      -0.613469       -16.6933 
  15   2.0000      -0.599957       -16.3257 
  16   2.0000      -0.536077       -14.5874 
  17   2.0000      -0.508505       -13.8371 
  18   2.0000      -0.448686       -12.2094 
  19   2.0000      -0.375238       -10.2107 
  20   2.0000      -0.352383        -9.5888 
  21   0.0000       0.189252         5.1498 
  22   0.0000       0.209917         5.7121 
  23   0.0000       0.246540         6.7087 
  24   0.0000       0.257224         6.9994 
  25   0.0000       0.286064         7.7842 
  26   0.0000       0.314385         8.5548 
  27   0.0000       0.323524         8.8035 
  28   0.0000       0.334625         9.1056 
  29   0.0000       0.345914         9.4128 
  30   0.0000       0.673693        18.3321 
  31   0.0000       0.723737        19.6939 
  32   0.0000       0.730126        19.8677 
  33   0.0000       0.801136        21.8000 
  34   0.0000       0.843690        22.9580 
  35   0.0000       0.923588        25.1321 
  36   0.0000       0.982061        26.7232 
  37   0.0000       1.003916        27.3179 
  38   0.0000       1.025858        27.9150 
  39   0.0000       1.150905        31.3177 
  40   0.0000       1.289172        35.0802 
  41   0.0000       1.314928        35.7810 
  42   0.0000       1.318573        35.8802 
  43   0.0000       1.353611        36.8336 
  44   0.0000       1.358095        36.9556 
  45   0.0000       1.394867        37.9562 
  46   0.0000       1.918604        52.2079 
  47   0.0000       1.951839        53.1123 
  48   0.0000       1.993214        54.2381 
  49   0.0000       2.031188        55.2714 
  50   0.0000       2.058061        56.0027 
  51   0.0000       3.227615        87.8279 

                    ********************************
                    * MULLIKEN POPULATION ANALYSIS *
                    ********************************

-----------------------
MULLIKEN ATOMIC CHARGES
-----------------------
   0 S :    0.960352
   1 C :   -0.911029
   2 C :   -0.911030
   3 O :   -0.690664
   4 H :    0.271965
   5 H :    0.236697
   6 H :    0.267523
   7 H :    0.236697
   8 H :    0.271964
   9 H :    0.267525
Sum of atomic charges:   -0.0000000

--------------------------------
MULLIKEN REDUCED ORBITAL CHARGES
--------------------------------
  0 S s       :     5.697418  s :     5.697418
      pz      :     2.892522  p :     9.342229
      px      :     3.505735
      py      :     2.943973
  1 C s       :     3.570145  s :     3.570145
      pz      :     1.073876  p :     3.340883
      px      :     1.163485
      py      :     1.103523
  2 C s       :     3.570146  s :     3.570146
      pz      :     1.073877  p :     3.340884
      px      :     1.163486
      py      :     1.103521
  3 O s       :     4.008149  s :     4.008149
      pz      :     1.865496  p :     4.682516
      px      :     1.651355
      py      :     1.165664
  4 H s       :     0.728035  s :     0.728035
  5 H s       :     0.763303  s :     0.763303
  6 H s       :     0.732477  s :     0.732477
  7 H s       :     0.763303  s :     0.763303
  8 H s       :     0.728036  s :     0.728036
  9 H s       :     0.732475  s :     0.732475


                     *******************************
                     * LOEWDIN POPULATION ANALYSIS *
                     *******************************

----------------------
LOEWDIN ATOMIC CHARGES
----------------------
   0 S :    0.758166
   1 C :   -0.422562
   2 C :   -0.422563
   3 O :   -0.653830
   4 H :    0.131437
   5 H :    0.114065
   6 H :    0.124892
   7 H :    0.114065
   8 H :    0.131437
   9 H :    0.124893

-------------------------------
LOEWDIN REDUCED ORBITAL CHARGES
-------------------------------
  0 S s       :     5.574771  s :     5.574771
      pz      :     3.016589  p :     9.667062
      px      :     3.593767
      py      :     3.056706
  1 C s       :     3.046538  s :     3.046538
      pz      :     1.104599  p :     3.376024
      px      :     1.154495
      py      :     1.116930
  2 C s       :     3.046538  s :     3.046538
      pz      :     1.104600  p :     3.376025
      px      :     1.154496
      py      :     1.116929
  3 O s       :     3.857535  s :     3.857535
      pz      :     1.883332  p :     4.796295
      px      :     1.677087
      py      :     1.235876
  4 H s       :     0.868563  s :     0.868563
  5 H s       :     0.885935  s :     0.885935
  6 H s       :     0.875108  s :     0.875108
  7 H s       :     0.885935  s :     0.885935
  8 H s       :     0.868563  s :     0.868563
  9 H s       :     0.875107  s :     0.875107


                      *****************************
                      * MAYER POPULATION ANALYSIS *
                      *****************************

  NA   - Mulliken gross atomic population
  ZA   - Total nuclear charge
  QA   - Mulliken gross atomic charge
  VA   - Mayer's total valence
  BVA  - Mayer's bonded valence
  FA   - Mayer's free valence

  ATOM       NA         ZA         QA         VA         BVA        FA
  0 S     15.0396    16.0000     0.9604     2.7591     2.7591    -0.0000
  1 C      6.9110     6.0000    -0.9110     3.5639     3.5639    -0.0000
  2 C      6.9110     6.0000    -0.9110     3.5639     3.5639    -0.0000
  3 O      8.6907     8.0000    -0.6907     1.3348     1.3348    -0.0000
  4 H      0.7280     1.0000     0.2720     0.8899     0.8899     0.0000
  5 H      0.7633     1.0000     0.2367     0.9022     0.9022     0.0000
  6 H      0.7325     1.0000     0.2675     0.8890     0.8890    -0.0000
  7 H      0.7633     1.0000     0.2367     0.9022     0.9022     0.0000
  8 H      0.7280     1.0000     0.2720     0.8899     0.8899    -0.0000
  9 H      0.7325     1.0000     0.2675     0.8890     0.8890     0.0000

  Mayer bond orders larger than 0.1
B(  0-S ,  1-C ) :   0.8016 B(  0-S ,  2-C ) :   0.8016 B(  0-S ,  3-O ) :   1.1670 
B(  1-C ,  7-H ) :   0.8960 B(  1-C ,  8-H ) :   0.8973 B(  1-C ,  9-H ) :   0.8913 
B(  2-C ,  4-H ) :   0.8973 B(  2-C ,  5-H ) :   0.8960 B(  2-C ,  6-H ) :   0.8913 


-------
TIMINGS
-------

Total SCF time: 0 days 0 hours 0 min 2 sec 

Total time                  ....       2.844 sec
Sum of individual times     ....       2.356 sec  ( 82.9%)

Fock matrix formation       ....       2.052 sec  ( 72.2%)
Diagonalization             ....       0.003 sec  (  0.1%)
Density matrix formation    ....       0.003 sec  (  0.1%)
Population analysis         ....       0.005 sec  (  0.2%)
Initial guess               ....       0.136 sec  (  4.8%)
Orbital Transformation      ....       0.000 sec  (  0.0%)
Orbital Orthonormalization  ....       0.000 sec  (  0.0%)
DIIS solution               ....       0.031 sec  (  1.1%)
SOSCF solution              ....       0.015 sec  (  0.5%)

-------------------------   --------------------
FINAL SINGLE POINT ENERGY      -548.679144021210
-------------------------   --------------------


                            ***************************************
                            *     ORCA property calculations      *
                            ***************************************

                                    ---------------------
                                    Active property flags
                                    ---------------------
   (+) Dipole Moment


------------------------------------------------------------------------------
                       ORCA ELECTRIC PROPERTIES CALCULATION
------------------------------------------------------------------------------

Dipole Moment Calculation                       ... on
Quadrupole Moment Calculation                   ... off
Polarizability Calculation                      ... off
GBWName                                         ... 04_dmso_hf_orca_freq.gbw
Electron density file                           ... 04_dmso_hf_orca_freq.scfp.tmp
The origin for moment calculation is the CENTER OF MASS  = (-0.515599,  1.225642 -0.000006)

-------------
DIPOLE MOMENT
-------------
                                X             Y             Z
Electronic contribution:     -2.37054       4.01040      -0.00001
Nuclear contribution   :      2.16187      -5.92960       0.00003
                        -----------------------------------------
Total Dipole Moment    :     -0.20867      -1.91920       0.00002
                        -----------------------------------------
Magnitude (a.u.)       :      1.93051
Magnitude (Debye)      :      4.90698



--------------------
Rotational spectrum 
--------------------
 
Rotational constants in cm-1:     0.210510     0.208270     0.127617 
Rotational constants in MHz :  6310.943201  6243.774078  3825.860270 

 Dipole components along the rotational axes: 
x,y,z [a.u.] :     1.923472    -0.000058    -0.164738 
x,y,z [Debye]:     4.889078    -0.000146    -0.418730 

 


           ************************************************************
           *        Program running with 4 parallel MPI-processes     *
           *              working on a common directory               *
           ************************************************************

-------------------------------------------------------------------------------
                               ORCA SCF HESSIAN
-------------------------------------------------------------------------------

Hessian of the Hartree-Fock SCF energy:
Hartree-Fock type                                ... RHF
Number of operators                              ...    1
Number of atoms                                  ...   10
Basis set dimensions                             ...   52
Integral neglect threshold                       ... 1.0e-10
Integral primitive cutoff                        ... 1.0e-11

Nuclear repulsion Hessian                        ... done   (      0.0 sec)

----------------------------------------------
Forming right-hand sides of CP-SCF equations     ...
----------------------------------------------
One electron integral derivatives                ... done   (      0.1 sec)
Transforming the overlap derivative matrices     ... done   (      0.1 sec)
Making the Q(x) pseudodensities                  ... done   (      0.0 sec)
Adding the E*S(x)*S(y) terms to the Hessian      ... done   (      0.0 sec)
Calculating energy weighted overlap derivatives  ... done   (      0.0 sec)
Two electron integral derivatives                ... done   (      0.2 sec)
tr(F(y)Q(x)) contribution to the Hessian         ... done   (      0.0 sec)
Response fock operator R(S(x))                   ... done   (      0.3 sec)
tr(F(y)S(x)) contribution to the Hessian         ... done   (      0.0 sec)
Transforming and finalizing RHSs                 ... done   (      0.0 sec)

----------------------------------------------
Solving the CP-SCF equations                     ...
----------------------------------------------
     CP-SCF ITERATION   0: 
     CP-SCF ITERATION   1:      0.004261392899
     CP-SCF ITERATION   2:      0.000873801683
     CP-SCF ITERATION   3:      0.000193986887
     CP-SCF ITERATION   4:      0.000024186475
     CP-SCF ITERATION   5:      0.000002850473
     CP-SCF ITERATION   6:      0.000000983335

                                                 ... done   (      1.8 sec)
Forming perturbed density Hessian contributions  ... done   (      0.0 sec)
Making the perturbed densities                   ... done   (      0.0 sec)
2nd integral derivative contribs                 ... done   (      0.6 sec)
Dipol derivatives                                ... done   (      0.2 sec)

Total SCF Hessian time: 0 days 0 hours 0 min 3 sec 

Writing the Hessian file to the disk             ... done


Maximum memory used throughout the entire calculation: 61.4 MB

-----------------------
VIBRATIONAL FREQUENCIES
-----------------------

Scaling factor for frequencies =  1.000000000  (already applied!)

   0:         0.00 cm**-1
   1:         0.00 cm**-1
   2:         0.00 cm**-1
   3:         0.00 cm**-1
   4:         0.00 cm**-1
   5:         0.00 cm**-1
   6:       148.60 cm**-1
   7:       179.18 cm**-1
   8:       218.37 cm**-1
   9:       237.19 cm**-1
  10:       304.41 cm**-1
  11:       632.64 cm**-1
  12:       699.19 cm**-1
  13:       711.27 cm**-1
  14:      1027.73 cm**-1
  15:      1061.14 cm**-1
  16:      1103.68 cm**-1
  17:      1154.49 cm**-1
  18:      1492.80 cm**-1
  19:      1519.90 cm**-1
  20:      1609.83 cm**-1
  21:      1622.81 cm**-1
  22:      1627.30 cm**-1
  23:      1642.48 cm**-1
  24:      3239.20 cm**-1
  25:      3240.03 cm**-1
  26:      3340.78 cm**-1
  27:      3341.73 cm**-1
  28:      3343.88 cm**-1
  29:      3345.84 cm**-1


------------
NORMAL MODES
------------

These modes are the Cartesian displacements weighted by the diagonal matrix
M(i,i)=1/sqrt(m[i]) where m[i] is the mass of the displaced atom
Thus, these vectors are normalized but *not* orthogonal

                  0          1          2          3          4          5    
      0       0.000000   0.000000   0.000000   0.000000   0.000000   0.000000
      1       0.000000   0.000000   0.000000   0.000000   0.000000   0.000000
      2       0.000000   0.000000   0.000000   0.000000   0.000000   0.000000
      3       0.000000   0.000000   0.000000   0.000000   0.000000   0.000000
      4       0.000000   0.000000   0.000000   0.000000   0.000000   0.000000
      5       0.000000   0.000000   0.000000   0.000000   0.000000   0.000000
      6       0.000000   0.000000   0.000000   0.000000   0.000000   0.000000
      7       0.000000   0.000000   0.000000   0.000000   0.000000   0.000000
      8       0.000000   0.000000   0.000000   0.000000   0.000000   0.000000
      9       0.000000   0.000000   0.000000   0.000000   0.000000   0.000000
     10       0.000000   0.000000   0.000000   0.000000   0.000000   0.000000
     11       0.000000   0.000000   0.000000   0.000000   0.000000   0.000000
     12       0.000000   0.000000   0.000000   0.000000   0.000000   0.000000
     13       0.000000   0.000000   0.000000   0.000000   0.000000   0.000000
     14       0.000000   0.000000   0.000000   0.000000   0.000000   0.000000
     15       0.000000   0.000000   0.000000   0.000000   0.000000   0.000000
     16       0.000000   0.000000   0.000000   0.000000   0.000000   0.000000
     17       0.000000   0.000000   0.000000   0.000000   0.000000   0.000000
     18       0.000000   0.000000   0.000000   0.000000   0.000000   0.000000
     19       0.000000   0.000000   0.000000   0.000000   0.000000   0.000000
     20       0.000000   0.000000   0.000000   0.000000   0.000000   0.000000
     21       0.000000   0.000000   0.000000   0.000000   0.000000   0.000000
     22       0.000000   0.000000   0.000000   0.000000   0.000000   0.000000
     23       0.000000   0.000000   0.000000   0.000000   0.000000   0.000000
     24       0.000000   0.000000   0.000000   0.000000   0.000000   0.000000
     25       0.000000   0.000000   0.000000   0.000000   0.000000   0.000000
     26       0.000000   0.000000   0.000000   0.000000   0.000000   0.000000
     27       0.000000   0.000000   0.000000   0.000000   0.000000   0.000000
     28       0.000000   0.000000   0.000000   0.000000   0.000000   0.000000
     29       0.000000   0.000000   0.000000   0.000000   0.000000   0.000000
                  6          7          8          9         10         11    
      0      -0.000002  -0.022161  -0.000005   0.105125   0.133605   0.203750
      1      -0.000001   0.004340  -0.000002   0.077723  -0.067418   0.014050
      2       0.000287  -0.000003   0.134749   0.000001  -0.000000  -0.000001
      3       0.024819  -0.011909  -0.070907  -0.039253  -0.091039  -0.101055
      4       0.018726   0.014909  -0.197886  -0.162306   0.038156   0.187241
      5       0.001964   0.002310   0.058473  -0.082980   0.196161  -0.253414
      6      -0.024818  -0.011912   0.070909  -0.039250  -0.091042  -0.101050
      7      -0.018720   0.014902   0.197901  -0.162297   0.038152   0.187245
      8       0.001960  -0.002311   0.058463   0.082987  -0.196160   0.253411
      9       0.000002   0.064966   0.000007  -0.119983  -0.067179  -0.203819
     10      -0.000003  -0.039107  -0.000012   0.182280   0.052962  -0.364063
     11      -0.002220   0.000007  -0.372616  -0.000009  -0.000000   0.000004
     12       0.291967  -0.332696   0.134627  -0.174766  -0.326983  -0.177095
     13       0.217412  -0.218634   0.389493  -0.413452   0.156035   0.160100
     14       0.019016  -0.016806   0.138870  -0.002702  -0.055924   0.263378
     15      -0.358799   0.318545   0.131384  -0.051951  -0.110359  -0.164314
     16       0.097732  -0.099924   0.166496  -0.144117   0.043231   0.211766
     17      -0.211318   0.211684  -0.184532   0.403635  -0.228910   0.271300
     18      -0.029261  -0.007086   0.060629  -0.025171  -0.069419  -0.077164
     19      -0.386325   0.382268   0.274705  -0.191059  -0.002070   0.062783
     20       0.181972  -0.187847   0.163154  -0.088430  -0.480893   0.030114
     21       0.358811   0.318563  -0.131329  -0.051915  -0.110351  -0.164308
     22      -0.097707  -0.099900  -0.166501  -0.144135   0.043230   0.211754
     23      -0.211296  -0.211670  -0.184531  -0.403659   0.228928  -0.271300
     24      -0.291947  -0.332680  -0.134666  -0.174805  -0.326980  -0.177107
     25      -0.217412  -0.218636  -0.389494  -0.413495   0.156039   0.160093
     26       0.019010   0.016794   0.138866   0.002701   0.055918  -0.263386
     27       0.029239  -0.007106  -0.060623  -0.025171  -0.069417  -0.077163
     28       0.386331   0.382280  -0.274634  -0.191035  -0.002065   0.062790
     29       0.181969   0.187843   0.163194   0.088477   0.480886  -0.030112
                 12         13         14         15         16         17    
      0      -0.015347  -0.000000  -0.000000   0.000000  -0.046594  -0.026177
      1       0.316354   0.000022  -0.000000   0.000001  -0.022242   0.034478
      2      -0.000026   0.259614  -0.020301   0.027249   0.000000  -0.000000
      3       0.125381  -0.143797  -0.057655  -0.060698   0.076863   0.050676
      4      -0.127615   0.216609   0.026793  -0.066521   0.058665  -0.065322
      5       0.268356  -0.276827   0.050083  -0.028954   0.004702  -0.064474
      6       0.125353   0.143810   0.057656   0.060699   0.076863   0.050673
      7      -0.127577  -0.216630  -0.026793   0.066517   0.058667  -0.065324
      8      -0.268303  -0.276861   0.050084  -0.028952  -0.004703   0.064476
      9      -0.200120  -0.000011   0.000001  -0.000000   0.019331   0.001802
     10      -0.387368  -0.000024   0.000001   0.000001  -0.009501  -0.001700
     11       0.000005  -0.014044   0.000614  -0.019815  -0.000000   0.000000
     12       0.166147   0.068493  -0.300844  -0.055681  -0.152390  -0.256701
     13      -0.216788  -0.015830   0.251387  -0.229748  -0.143520   0.306475
     14      -0.332867  -0.142712   0.311913  -0.142776  -0.033922   0.359655
     15       0.054936   0.181874  -0.096536  -0.246593  -0.279897  -0.021267
     16      -0.091911  -0.237239   0.021501   0.200463   0.205617  -0.053472
     17      -0.060074  -0.369997  -0.163695   0.412346   0.328563  -0.287149
     18       0.117263   0.137432   0.094386   0.081435   0.103985   0.076128
     19      -0.127631  -0.096025  -0.120093  -0.310295  -0.332038  -0.009442
     20      -0.142274  -0.205673  -0.427022  -0.200663  -0.307347  -0.327482
     21       0.054970  -0.181872   0.096524   0.246605  -0.279901  -0.021264
     22      -0.091954   0.237223  -0.021482  -0.200458   0.205598  -0.053480
     23       0.060145  -0.370004  -0.163717   0.412355  -0.328542   0.287152
     24       0.166173  -0.068484   0.300849   0.055681  -0.152402  -0.256713
     25      -0.216787   0.015794  -0.251384   0.229755  -0.143509   0.306466
     26       0.332897  -0.142673   0.311919  -0.142770   0.033895  -0.359655
     27       0.117290  -0.137412  -0.094385  -0.081455   0.104006   0.076124
     28      -0.127647   0.095999   0.120076   0.310299  -0.332028  -0.009438
     29       0.142306  -0.205635  -0.427005  -0.200679   0.307363   0.327474
                 18         19         20         21         22         23    
      0       0.000001   0.005781  -0.000000   0.004956   0.000001  -0.004976
      1      -0.000000  -0.005682  -0.000000  -0.002699  -0.000000  -0.003938
      2       0.009866  -0.000001   0.004123  -0.000000   0.002203  -0.000000
      3       0.033029   0.032850  -0.031065   0.025927   0.026514  -0.027995
      4      -0.044308  -0.045296   0.016221  -0.015087   0.034662  -0.031581
      5       0.059798   0.059439   0.030291  -0.030641   0.009238  -0.009067
      6      -0.033024   0.032850   0.031063   0.025937  -0.026508  -0.027998
      7       0.044305  -0.045302  -0.016224  -0.015080  -0.034666  -0.031578
      8       0.059792  -0.059446   0.030287   0.030640   0.009248   0.009066
      9      -0.000000  -0.002155   0.000000  -0.001498  -0.000000   0.001590
     10       0.000000   0.002059  -0.000000   0.001375   0.000000   0.000038
     11      -0.002396   0.000000  -0.000140  -0.000000  -0.000103  -0.000000
     12       0.203343  -0.190741  -0.014529   0.015804   0.441729   0.443870
     13      -0.271443   0.262340  -0.291204  -0.292542   0.208164   0.211843
     14      -0.199867   0.191663  -0.115977  -0.130730  -0.029387  -0.030568
     15       0.247480  -0.260696  -0.416704  -0.406266  -0.066292  -0.049399
     16      -0.097084   0.098802   0.139283   0.136529   0.008801   0.004154
     17      -0.325584   0.325911  -0.273448  -0.271305   0.247821   0.259369
     18       0.017885  -0.014835   0.018062   0.014461   0.008181   0.005674
     19      -0.236088   0.252682   0.360436   0.367702   0.247139   0.222591
     20      -0.324898   0.321556  -0.035931  -0.050393  -0.362858  -0.368741
     21      -0.247513  -0.260687   0.416736  -0.406264   0.066156  -0.049409
     22       0.097085   0.098786  -0.139263   0.136494  -0.008755   0.004159
     23      -0.325613  -0.325871  -0.273482   0.271205   0.247908  -0.259366
     24      -0.203376  -0.190732   0.014521   0.015966  -0.441706   0.443858
     25       0.271454   0.262294   0.291241  -0.292456  -0.208282   0.211863
     26      -0.199884  -0.191638  -0.115988   0.130731  -0.029350   0.030576
     27      -0.017898  -0.014845  -0.018043   0.014442  -0.008159   0.005659
     28       0.236122   0.252671  -0.360451   0.367754  -0.247014   0.222602
     29      -0.324933  -0.321520  -0.035939   0.050518  -0.362843   0.368748
                 24         25         26         27         28         29    
      0       0.000000   0.000120   0.000000   0.000223   0.000000   0.000070
      1       0.000000   0.000314  -0.000000  -0.000008  -0.000000   0.000077
      2      -0.000211   0.000000   0.000182  -0.000000  -0.000257  -0.000000
      3       0.013463   0.013695  -0.061481   0.056916  -0.003425   0.022933
      4      -0.017810  -0.016288  -0.013177  -0.005644  -0.055126   0.056963
      5       0.019875   0.020929   0.023293  -0.034488  -0.037550   0.027576
      6      -0.013448   0.013708   0.061532   0.056858   0.003443   0.022943
      7       0.017793  -0.016307   0.013163  -0.005679   0.055110   0.056977
      8       0.019854  -0.020950   0.023328   0.034480  -0.037530  -0.027582
      9      -0.000000  -0.000263  -0.000000  -0.000061  -0.000000  -0.000057
     10      -0.000000  -0.000348  -0.000000  -0.000056   0.000000  -0.000284
     11      -0.000205   0.000000  -0.000109   0.000000  -0.000070  -0.000000
     12      -0.111769   0.114653  -0.076445  -0.124789   0.157393   0.121328
     13       0.171547  -0.175776   0.143794   0.210633  -0.229162  -0.167321
     14      -0.304618   0.314588  -0.256294  -0.383520   0.441705   0.325038
     15      -0.156253   0.151418  -0.100408  -0.037072  -0.173631  -0.201113
     16      -0.394172   0.383080  -0.285944  -0.125939  -0.437641  -0.517468
     17       0.029016  -0.026914   0.022715   0.014496   0.020634   0.026223
     18       0.425493  -0.429233  -0.555874  -0.518696  -0.025266  -0.194249
     19       0.016336  -0.015241  -0.014018  -0.016458   0.011227   0.006900
     20       0.044004  -0.041744  -0.046413  -0.037176  -0.010509  -0.023301
     21       0.156389   0.151234   0.100376  -0.037219   0.173642  -0.201031
     22       0.394581   0.382681   0.285881  -0.126358   0.437731  -0.517342
     23       0.029050   0.026890   0.022708  -0.014526   0.020642  -0.026224
     24       0.111899   0.114549   0.076331  -0.124821  -0.157486   0.121310
     25      -0.171718  -0.175585  -0.143580   0.210675   0.229265  -0.167269
     26      -0.304940  -0.314267  -0.255916   0.383603   0.441922  -0.324954
     27      -0.425940  -0.428793   0.555413  -0.519210   0.025138  -0.194198
     28      -0.016377  -0.015249   0.014035  -0.016498  -0.011233   0.006886
     29       0.044044   0.041695  -0.046376   0.037217  -0.010502   0.023292


-----------
IR SPECTRUM
-----------

 Mode    freq (cm**-1)   T**2         TX         TY         TZ
-------------------------------------------------------------------
   6:       148.60    0.021932  (  0.000016   0.000030   0.148093)
   7:       179.18    1.897950  ( -1.240171   0.599938  -0.000091)
   8:       218.37    8.657047  (  0.000000   0.000150   2.942286)
   9:       237.19    4.270048  (  1.262060  -1.636231   0.000084)
  10:       304.41    2.755045  (  1.260333  -1.080095   0.000001)
  11:       632.64    4.134866  ( -2.016871   0.259031   0.000008)
  12:       699.19    7.459458  ( -2.684560   0.502587  -0.000033)
  13:       711.27    0.902175  ( -0.000207   0.000092   0.949829)
  14:      1027.73    0.707020  ( -0.000035   0.000011  -0.840845)
  15:      1061.14    0.866095  (  0.000004   0.000079   0.930642)
  16:      1103.68    8.157317  ( -2.670469  -1.012873   0.000048)
  17:      1154.49   20.689133  ( -2.564340   3.756766   0.000011)
  18:      1492.80    0.419990  ( -0.000116   0.000051   0.648066)
  19:      1519.90    1.900208  ( -1.294743   0.473126   0.000080)
  20:      1609.83   13.988887  (  0.000149   0.000087  -3.740172)
  21:      1622.81    6.528946  ( -2.454871   0.708911   0.000115)
  22:      1627.30    3.161652  ( -0.000277   0.000015  -1.778103)
  23:      1642.48   36.469970  (  4.332637   4.206926   0.000083)
  24:      3239.20    8.161219  (  0.000496  -0.001518   2.856784)
  25:      3240.03    9.675441  (  0.975298  -2.953681  -0.001458)
  26:      3340.78    0.267225  (  0.000555   0.000138   0.516938)
  27:      3341.73    1.452796  (  1.111487   0.466254  -0.000238)
  28:      3343.88    0.016651  (  0.000138  -0.000101  -0.129040)
  29:      3345.84    2.751368  (  0.792709   1.457045   0.000093)

The first frequency considered to be a vibration is 6
The total number of vibrations considered is 24


--------------------------
THERMOCHEMISTRY AT 298.15K
--------------------------

Temperature         ... 298.15 K
Pressure            ... 1.00 atm
Total Mass          ... 78.13 AMU

Throughout the following assumptions are being made:
  (1) The electronic state is orbitally nondegenerate
  (2) There are no thermally accessible electronically excited states
  (3) Hindered rotations indicated by low frequency modes are not
      treated as such but are treated as vibrations and this may
      cause some error
  (4) All equations used are the standard statistical mechanics
      equations for an ideal gas
  (5) All vibrations are strictly harmonic

freq.     148.60  E(vib)   ...       0.41 
freq.     179.18  E(vib)   ...       0.37 
freq.     218.37  E(vib)   ...       0.33 
freq.     237.19  E(vib)   ...       0.32 
freq.     304.41  E(vib)   ...       0.26 
freq.     632.64  E(vib)   ...       0.09 
freq.     699.19  E(vib)   ...       0.07 
freq.     711.27  E(vib)   ...       0.07 
freq.    1027.73  E(vib)   ...       0.02 
freq.    1061.14  E(vib)   ...       0.02 
freq.    1103.68  E(vib)   ...       0.02 
freq.    1154.49  E(vib)   ...       0.01 
freq.    1492.80  E(vib)   ...       0.00 
freq.    1519.90  E(vib)   ...       0.00 
freq.    1609.83  E(vib)   ...       0.00 
freq.    1622.81  E(vib)   ...       0.00 
freq.    1627.30  E(vib)   ...       0.00 
freq.    1642.48  E(vib)   ...       0.00 
freq.    3239.20  E(vib)   ...       0.00 
freq.    3240.03  E(vib)   ...       0.00 
freq.    3340.78  E(vib)   ...       0.00 
freq.    3341.73  E(vib)   ...       0.00 
freq.    3343.88  E(vib)   ...       0.00 
freq.    3345.84  E(vib)   ...       0.00 

------------
INNER ENERGY
------------

The inner energy is: U= E(el) + E(ZPE) + E(vib) + E(rot) + E(trans)
    E(el)   - is the total energy from the electronic structure calculation
              = E(kin-el) + E(nuc-el) + E(el-el) + E(nuc-nuc)
    E(ZPE)  - the the zero temperature vibrational energy from the frequency calculation
    E(vib)  - the the finite temperature correction to E(ZPE) due to population
              of excited vibrational states
    E(rot)  - is the rotational thermal energy
    E(trans)- is the translational thermal energy

Summary of contributions to the inner energy U:
Electronic energy                ...   -548.67914402 Eh
Zero point energy                ...      0.08393782 Eh      52.67 kcal/mol
Thermal vibrational correction   ...      0.00318399 Eh       2.00 kcal/mol
Thermal rotational correction    ...      0.00141627 Eh       0.89 kcal/mol
Thermal translational correction ...      0.00141627 Eh       0.89 kcal/mol
-----------------------------------------------------------------------
Total thermal energy                   -548.58918967 Eh


Summary of corrections to the electronic energy:
(perhaps to be used in another calculation)
Total thermal correction                  0.00601653 Eh       3.78 kcal/mol
Non-thermal (ZPE) correction              0.08393782 Eh      52.67 kcal/mol
-----------------------------------------------------------------------
Total correction                          0.08995435 Eh      56.45 kcal/mol


--------
ENTHALPY
--------

The enthalpy is H = U + kB*T
                kB is Boltzmann's constant
Total free energy                 ...   -548.58918967 Eh 
Thermal Enthalpy correction       ...      0.00094421 Eh       0.59 kcal/mol
-----------------------------------------------------------------------
Total Enthalpy                    ...   -548.58824546 Eh


Note: Rotational entropy computed according to Herzberg 
Infrared and Raman Spectra, Chapter V,1, Van Nostrand Reinhold, 1945 
Point Group:  C1, Symmetry Number:   1  
Rotational constants in cm-1:     0.210510     0.208270     0.127617 

Vibrational entropy computed according to the QRRHO of S. Grimme
Chem.Eur.J. 2012 18 9955


-------
ENTROPY
-------

The entropy contributions are T*S = T*(S(el)+S(vib)+S(rot)+S(trans))
     S(el)   - electronic entropy
     S(vib)  - vibrational entropy
     S(rot)  - rotational entropy
     S(trans)- translational entropy
The entropies will be listed as mutliplied by the temperature to get
units of energy

Electronic entropy                ...      0.00000000 Eh      0.00 kcal/mol
Vibrational entropy               ...      0.00546508 Eh      3.43 kcal/mol
Rotational entropy                ...      0.01195901 Eh      7.50 kcal/mol
Translational entropy             ...      0.01852169 Eh     11.62 kcal/mol
-----------------------------------------------------------------------
Final entropy term                ...      0.03594578 Eh     22.56 kcal/mol


-------------------
GIBBS FREE ENTHALPY
-------------------

The Gibbs free enthalpy is G = H - T*S

Total enthalpy                    ...   -548.58824546 Eh 
Total entropy correction          ...     -0.03594578 Eh    -22.56 kcal/mol
-----------------------------------------------------------------------
Final Gibbs free enthalpy         ...   -548.62419125 Eh

For completeness - the Gibbs free enthalpy minus the electronic energy
G-E(el)                           ...      0.05495277 Eh     34.48 kcal/mol


Timings for individual modules:

Sum of individual times         ...       18.682 sec (=   0.311 min)
GTO integral calculation        ...        4.313 sec (=   0.072 min)  23.1 %
SCF iterations                  ...        6.861 sec (=   0.114 min)  36.7 %
Analytical frequency calculation...        7.508 sec (=   0.125 min)  40.2 %
                             ****ORCA TERMINATED NORMALLY****
TOTAL RUN TIME: 0 days 0 hours 0 minutes 22 seconds 483 msec
