
                                 *****************
                                 * O   R   C   A *
                                 *****************

           --- An Ab Initio, DFT and Semiempirical electronic structure package ---

                  #######################################################
                  #                        -***-                        #
                  #          Department of theory and spectroscopy      #
                  #               Directorship: Frank Neese             #
                  #        Max Planck Institute fuer Kohlenforschung    #
                  #                Kaiser Wilhelm Platz 1               #
                  #                 D-45470 Muelheim/Ruhr               #
                  #                      Germany                        #
                  #                                                     #
                  #                  All rights reserved                #
                  #                        -***-                        #
                  #######################################################


                         Program Version 4.2.0 -  RELEASE  -


 With contributions from (in alphabetic order):
   Daniel Aravena         : Magnetic Suceptibility
   Michael Atanasov       : Ab Initio Ligand Field Theory (pilot matlab implementation)
   Alexander A. Auer      : GIAO ZORA, VPT2
   Ute Becker             : Parallelization
   Giovanni Bistoni       : ED, misc. LED, open-shell LED, HFLED
   Martin Brehm           : Molecular dynamics
   Dmytro Bykov           : SCF Hessian
   Vijay G. Chilkuri      : MRCI spin determinant printing, contributions to CSF-ICE
   Dipayan Datta          : RHF DLPNO-CCSD density
   Achintya Kumar Dutta   : EOM-CC, STEOM-CC
   Dmitry Ganyushin       : Spin-Orbit,Spin-Spin,Magnetic field MRCI
   Miquel Garcia          : C-PCM Hessian, Gaussian charge scheme
   Yang Guo               : DLPNO-NEVPT2, CIM, IAO-localization
   Andreas Hansen         : Spin unrestricted coupled pair/coupled cluster methods
   Benjamin Helmich-Paris : CASSCF linear response (MC-RPA)
   Lee Huntington         : MR-EOM, pCC
   Robert Izsak           : Overlap fitted RIJCOSX, COSX-SCS-MP3, EOM
   Christian Kollmar      : KDIIS, OOCD, Brueckner-CCSD(T), CCSD density
   Simone Kossmann        : Meta GGA functionals, TD-DFT gradient, OOMP2, MP2 Hessian
   Martin Krupicka        : AUTO-CI
   Lucas Lang             : DCDCAS
   Dagmar Lenk            : GEPOL surface, SMD
   Dimitrios Liakos       : Extrapolation schemes; Compound Job, initial MDCI parallelization
   Dimitrios Manganas     : Further ROCIS development; embedding schemes
   Dimitrios Pantazis     : SARC Basis sets
   Taras Petrenko         : DFT Hessian,TD-DFT gradient, ASA, ECA, R-Raman, ABS, FL, XAS/XES, NRVS
   Peter Pinski           : DLPNO-MP2, DLPNO-MP2 Gradient
   Christoph Reimann      : Effective Core Potentials
   Marius Retegan         : Local ZFS, SOC
   Christoph Riplinger    : Optimizer, TS searches, QM/MM, DLPNO-CCSD(T), (RO)-DLPNO pert. Triples
   Tobias Risthaus        : Range-separated hybrids, TD-DFT gradient, RPA, STAB
   Michael Roemelt        : Original ROCIS implementation
   Masaaki Saitow         : Open-shell DLPNO-CCSD energy and density
   Barbara Sandhoefer     : DKH picture change effects
   Avijit Sen             : IP-ROCIS
   Kantharuban Sivalingam : CASSCF convergence, NEVPT2, FIC-MRCI
   Bernardo de Souza      : ESD, SOC TD-DFT
   Georgi Stoychev        : AutoAux, RI-MP2 NMR
   Willem Van den Heuvel  : Paramagnetic NMR
   Boris Wezisla          : Elementary symmetry handling
   Frank Wennmohs         : Technical directorship


 We gratefully acknowledge several colleagues who have allowed us to
 interface, adapt or use parts of their codes:
   Stefan Grimme, W. Hujo, H. Kruse,             : VdW corrections, initial TS optimization,
                  C. Bannwarth                     DFT functionals, gCP, sTDA/sTD-DF
   Ed Valeev, F. Pavosevic, A. Kumar             : LibInt (2-el integral package), F12 methods
   Garnet Chan, S. Sharma, J. Yang, R. Olivares  : DMRG
   Ulf Ekstrom                                   : XCFun DFT Library
   Mihaly Kallay                                 : mrcc  (arbitrary order and MRCC methods)
   Andreas Klamt, Michael Diedenhofen            : otool_cosmo (COSMO solvation model)
   Jiri Pittner, Ondrej Demel                    : Mk-CCSD
   Frank Weinhold                                : gennbo (NPA and NBO analysis)
   Christopher J. Cramer and Donald G. Truhlar   : smd solvation model
   Lars Goerigk                                  : TD-DFT with DH, B97 family of functionals
   V. Asgeirsson, H. Jonsson                     : NEB implementation
   FAccTs GmbH                                   : IRC, NEB, NEB-TS, Multilevel, MM, QM/MM, CI optimization
   S Lehtola, MJT Oliveira, MAL Marques          : LibXC Library


 Your calculation uses the libint2 library for the computation of 2-el integrals
 For citations please refer to: http://libint.valeyev.net

 Your ORCA version has been built with support for libXC version: 4.2.3
 For citations please refer to: https://tddft.org/programs/libxc/

 This ORCA versions uses:
   CBLAS   interface :  Fast vector & matrix operations
   LAPACKE interface :  Fast linear algebra routines
   SCALAPACK package :  Parallel linear algebra routines


Your calculation utilizes the atom-pairwise dispersion correction
with the zero-damping scheme (D30)
Cite in your paper:
S.Grimme, J.Antony, S.Ehrlich and H.Krieg, J.Chem.Phys., 132, (2010), 154104 
   

XCFun DFT library Copyright 2009-2010 Ulf Ekstrom and contributors.
See http://admol.org/xcfun for more information. This is free soft-
ware; see the source code for copying conditions. There is ABSOLUTELY
NO WARRANTY; not even for MERCHANTABILITY or FITNESS FOR A PARTICULAR
PURPOSE. For details see the documentation. Scientific users of this 
library should cite U. Ekstrom, L. Visscher, R. Bast, A. J. Thorvald-
sen and K. Ruud; J.Chem.Theor.Comp. 2010, DOI: 10.1021/ct100117s
XCFun Version 0.99 
----- Orbital basis set information -----
Your calculation utilizes the basis: def2-TZVP
   F. Weigend and R. Ahlrichs, Phys. Chem. Chem. Phys. 7, 3297 (2005).

----- AuxJ basis set information -----
Your calculation utilizes the auxiliary basis: def2/J
   F. Weigend, Phys. Chem. Chem. Phys. 8, 1057 (2006).

================================================================================
                                        WARNINGS
                       Please study these warnings very carefully!
================================================================================


INFO   : the flag for use of LIBINT has been found!

================================================================================
                                       INPUT FILE
================================================================================
NAME = orca.inp
|  1> !wb97x-d3 def2-tzvp tightscf rijcosx grid4 finalgrid5 gridx4 freq
|  2>         !moread
|  3>             %moinp "/home/si93yaq/projekte/phosphor_fprakt/def2ztvp_better_grid_recalc/01_alkin/01_alkin_000.006.orca.gbw" 
|  4> 
|  5>         %pal nprocs 36 end
|  6> 
|  7>         %maxcore 3500
|  8> 
|  9>         *xyz 0 1
| 10>         H -0.18819269 2.61127500 2.33844872
| 11> C -0.44372828 1.57566965 2.15385895
| 12> C -1.76415835 1.19090640 1.99976326
| 13> H -2.55100100 1.93191055 2.06555175
| 14> C -2.07937259 -0.13952502 1.76304005
| 15> C -1.07105525 -1.08915086 1.67891378
| 16> H -1.31559550 -2.12783583 1.49507685
| 17> C 0.25135117 -0.71226359 1.83141764
| 18> H 1.04571035 -1.44476137 1.76714824
| 19> C 0.57402279 0.62405454 2.06969771
| 20> C 1.94123203 1.01566480 2.22126745
| 21> C 3.08713310 1.34795047 2.35094449
| 22> C 4.44859071 1.81299799 2.50642125
| 23> O 5.32066962 0.80218080 2.43344402
| 24> O 4.75087836 2.96133876 2.68645254
| 25> C 6.69175730 1.17210895 2.58508841
| 26> H 7.25604293 0.24673580 2.51077892
| 27> H 6.85604787 1.64221169 3.55437508
| 28> H 6.98960802 1.86610970 1.79932428
| 29> H -3.11416056 -0.43741842 1.64670663
| 30>         *
| 31>                                   ****END OF INPUT****
================================================================================

                       ****************************
                       * Single Point Calculation *
                       ****************************

---------------------------------
CARTESIAN COORDINATES (ANGSTROEM)
---------------------------------
  H     -0.188193    2.611275    2.338449
  C     -0.443728    1.575670    2.153859
  C     -1.764158    1.190906    1.999763
  H     -2.551001    1.931911    2.065552
  C     -2.079373   -0.139525    1.763040
  C     -1.071055   -1.089151    1.678914
  H     -1.315595   -2.127836    1.495077
  C      0.251351   -0.712264    1.831418
  H      1.045710   -1.444761    1.767148
  C      0.574023    0.624055    2.069698
  C      1.941232    1.015665    2.221267
  C      3.087133    1.347950    2.350944
  C      4.448591    1.812998    2.506421
  O      5.320670    0.802181    2.433444
  O      4.750878    2.961339    2.686453
  C      6.691757    1.172109    2.585088
  H      7.256043    0.246736    2.510779
  H      6.856048    1.642212    3.554375
  H      6.989608    1.866110    1.799324
  H     -3.114161   -0.437418    1.646707

----------------------------
CARTESIAN COORDINATES (A.U.)
----------------------------
  NO LB      ZA    FRAG     MASS         X           Y           Z
   0 H     1.0000    0     1.008   -0.355633    4.934595    4.419028
   1 C     6.0000    0    12.011   -0.838525    2.977584    4.070204
   2 C     6.0000    0    12.011   -3.333776    2.250487    3.779005
   3 H     1.0000    0     1.008   -4.820693    3.650782    3.903327
   4 C     6.0000    0    12.011   -3.929445   -0.263664    3.331663
   5 C     6.0000    0    12.011   -2.024001   -2.058197    3.172687
   6 H     1.0000    0     1.008   -2.486115   -4.021027    2.825286
   7 C     6.0000    0    12.011    0.474985   -1.345983    3.460878
   8 H     1.0000    0     1.008    1.976106   -2.730203    3.339426
   9 C     6.0000    0    12.011    1.084746    1.179292    3.911162
  10 C     6.0000    0    12.011    3.668397    1.919328    4.197587
  11 C     6.0000    0    12.011    5.833836    2.547257    4.442641
  12 C     6.0000    0    12.011    8.406618    3.426070    4.736450
  13 O     8.0000    0    15.999   10.054608    1.515902    4.598543
  14 O     8.0000    0    15.999    8.977859    5.596119    5.076660
  15 C     6.0000    0    12.011   12.645589    2.214965    4.885109
  16 H     1.0000    0     1.008   13.711934    0.466263    4.744685
  17 H     1.0000    0     1.008   12.956053    3.103330    6.716795
  18 H     1.0000    0     1.008   13.208445    3.526436    3.400230
  19 H     1.0000    0     1.008   -5.884911   -0.826601    3.111825

--------------------------------
INTERNAL COORDINATES (ANGSTROEM)
--------------------------------
 H      0   0   0     0.000000000000     0.00000000     0.00000000
 C      1   0   0     1.082520328628     0.00000000     0.00000000
 C      2   1   0     1.383952242669   120.67558872     0.00000000
 H      3   2   1     1.082837306151   119.75414740   359.91753643
 C      3   2   1     1.387604287459   120.15199403   179.97673493
 C      5   3   2     1.387649207633   120.09407681   359.94942863
 H      6   5   3     1.082803037309   120.17531392   179.94759982
 C      6   5   3     1.383495638324   120.09552304     0.02911863
 H      8   6   5     1.082446331386   120.70118894   180.03185369
 C      8   6   5     1.395220595705   120.05287019   359.97513934
 C     10   8   6     1.430242317848   120.09419590   180.29261544
 C     11  10   8     1.200132977389   179.77832010   204.83546847
 C     12  11  10     1.447069121564   177.32722605   326.71686601
 O     13  12  11     1.337011104279   111.39776517   186.71265419
 O     13  12  11     1.201031062365   124.06811611     7.15148118
 C     14  13  12     1.428189162341   115.12284864   180.35255116
 H     16  14  13     1.086395710259   105.70909213   179.46934675
 H     16  14  13     1.089726858523   110.54353537    59.88794406
 H     16  14  13     1.089851990134   110.53341456   299.12921534
 H      5   3   2     1.083078983837   119.93851827   179.76908552

---------------------------
INTERNAL COORDINATES (A.U.)
---------------------------
 H      0   0   0     0.000000000000     0.00000000     0.00000000
 C      1   0   0     2.045666955510     0.00000000     0.00000000
 C      2   1   0     2.615290721070   120.67558872     0.00000000
 H      3   2   1     2.046265956219   119.75414740   359.91753643
 C      3   2   1     2.622192085553   120.15199403   179.97673493
 C      5   3   2     2.622276972379   120.09407681   359.94942863
 H      6   5   3     2.046201197492   120.17531392   179.94759982
 C      6   5   3     2.614427863906   120.09552304     0.02911863
 H      8   6   5     2.045527120988   120.70118894   180.03185369
 C      8   6   5     2.636584822289   120.05287019   359.97513934
 C     10   8   6     2.702766285877   120.09419590   180.29261544
 C     11  10   8     2.267922651554   179.77832010   204.83546847
 C     12  11  10     2.734564336611   177.32722605   326.71686601
 O     13  12  11     2.526584825099   111.39776517   186.71265419
 O     13  12  11     2.269619786202   124.06811611     7.15148118
 C     14  13  12     2.698886384259   115.12284864   180.35255116
 H     16  14  13     2.052990365457   105.70909213   179.46934675
 H     16  14  13     2.059285323387   110.54353537    59.88794406
 H     16  14  13     2.059521787863   110.53341456   299.12921534
 H      5   3   2     2.046722660857   119.93851827   179.76908552

---------------------
BASIS SET INFORMATION
---------------------
There are 3 groups of distinct atoms

 Group   1 Type H   : 5s1p contracted to 3s1p pattern {311/1}
 Group   2 Type C   : 11s6p2d1f contracted to 5s3p2d1f pattern {62111/411/11/1}
 Group   3 Type O   : 11s6p2d1f contracted to 5s3p2d1f pattern {62111/411/11/1}

Atom   0H    basis set group =>   1
Atom   1C    basis set group =>   2
Atom   2C    basis set group =>   2
Atom   3H    basis set group =>   1
Atom   4C    basis set group =>   2
Atom   5C    basis set group =>   2
Atom   6H    basis set group =>   1
Atom   7C    basis set group =>   2
Atom   8H    basis set group =>   1
Atom   9C    basis set group =>   2
Atom  10C    basis set group =>   2
Atom  11C    basis set group =>   2
Atom  12C    basis set group =>   2
Atom  13O    basis set group =>   3
Atom  14O    basis set group =>   3
Atom  15C    basis set group =>   2
Atom  16H    basis set group =>   1
Atom  17H    basis set group =>   1
Atom  18H    basis set group =>   1
Atom  19H    basis set group =>   1
---------------------------------
AUXILIARY/J BASIS SET INFORMATION
---------------------------------
There are 3 groups of distinct atoms

 Group   1 Type H   : 5s2p1d contracted to 3s1p1d pattern {311/2/1}
 Group   2 Type C   : 12s5p4d2f1g contracted to 6s4p3d1f1g pattern {711111/2111/211/2/1}
 Group   3 Type O   : 12s5p4d2f1g contracted to 6s4p3d1f1g pattern {711111/2111/211/2/1}

Atom   0H    basis set group =>   1
Atom   1C    basis set group =>   2
Atom   2C    basis set group =>   2
Atom   3H    basis set group =>   1
Atom   4C    basis set group =>   2
Atom   5C    basis set group =>   2
Atom   6H    basis set group =>   1
Atom   7C    basis set group =>   2
Atom   8H    basis set group =>   1
Atom   9C    basis set group =>   2
Atom  10C    basis set group =>   2
Atom  11C    basis set group =>   2
Atom  12C    basis set group =>   2
Atom  13O    basis set group =>   3
Atom  14O    basis set group =>   3
Atom  15C    basis set group =>   2
Atom  16H    basis set group =>   1
Atom  17H    basis set group =>   1
Atom  18H    basis set group =>   1
Atom  19H    basis set group =>   1


           ************************************************************
           *        Program running with 36 parallel MPI-processes    *
           *              working on a common directory               *
           ************************************************************
------------------------------------------------------------------------------
                           ORCA GTO INTEGRAL CALCULATION
                           -- RI-GTO INTEGRALS CHOSEN --
------------------------------------------------------------------------------

                         BASIS SET STATISTICS AND STARTUP INFO

Gaussian basis set:
 # of primitive gaussian shells          ...  288
 # of primitive gaussian functions       ...  616
 # of contracted shells                  ...  164
 # of contracted basis functions         ...  420
 Highest angular momentum                ...    3
 Maximum contraction depth               ...    6
Auxiliary gaussian basis set:
 # of primitive gaussian shells          ...  352
 # of primitive gaussian functions       ...  968
 # of contracted shells                  ...  220
 # of contracted aux-basis functions     ...  676
 Highest angular momentum                ...    4
 Maximum contraction depth               ...    7
Ratio of auxiliary to basis functions    ...  1.61
Integral package used                  ... LIBINT
 One Electron integrals                  ... done
 Ordering auxiliary basis shells         ... done
 Integral threshhold             Thresh  ...  2.500e-11
 Primitive cut-off               TCut    ...  2.500e-12
 Pre-screening matrix                    ... done
 Shell pair data                         ... 
 Ordering of the shell pairs             ... done (   0.002 sec) 10285 of 13530 pairs
 Determination of significant pairs      ... done (   0.000 sec)
 Creation of shell pair data             ... done (   0.002 sec)
 Storage of shell pair data              ... done (   0.089 sec)
 Shell pair data done in (   0.094 sec)
 Computing two index integrals           ... done
 Cholesky decomposition of the V-matrix  ... done


Timings:
 Total evaluation time                   ...   0.643 sec (  0.011 min)
 One electron matrix time                ...   0.217 sec (  0.004 min) = 33.7%
 Schwartz matrix evaluation time         ...   0.252 sec (  0.004 min) = 39.2%
 Two index repulsion integral time       ...   0.021 sec (  0.000 min) =  3.3%
 Cholesky decomposition of V             ...   0.020 sec (  0.000 min) =  3.2%
 Three index repulsion integral time     ...   0.000 sec (  0.000 min) =  0.0%



           ************************************************************
           *        Program running with 36 parallel MPI-processes    *
           *              working on a common directory               *
           ************************************************************
-------------------------------------------------------------------------------
                                 ORCA SCF
-------------------------------------------------------------------------------

------------
SCF SETTINGS
------------
Hamiltonian:
 Density Functional     Method          .... DFT(GTOs)
 Exchange Functional    Exchange        .... WB97X-D3
 Correlation Functional Correlation     .... WB97X-D3
 Gradients option       PostSCFGGA      .... off
 Hybrid DFT is turned on
   Fraction HF Exchange ScalHFX         ....  0.195728
   Scaling of DF-GGA-X  ScalDFX         ....  0.000000
   Scaling of DF-GGA-C  ScalDFC         ....  1.000000
   Scaling of DF-LDA-C  ScalLDAC        ....  1.000000
   Perturbative correction              ....  0.000000
   Density functional embedding theory  .... OFF
 Long-range corrected/Screened/Range-Separated Hybrid DFT is turned on
   Amount of maximum screened exact exchange              ....  0.804272
   Range separation parameter mu (erf(mu*r12)/r12)        ....  0.250000
 RI-approximation to the Coulomb term is turned on
   Number of auxiliary basis functions  .... 676
   RIJ-COSX (HFX calculated with COS-X)).... on


General Settings:
 Integral files         IntName         .... orca
 Hartree-Fock type      HFTyp           .... RHF
 Total Charge           Charge          ....    0
 Multiplicity           Mult            ....    1
 Number of Electrons    NEL             ....   84
 Basis Dimension        Dim             ....  420
 Nuclear Repulsion      ENuc            ....    582.3274347475 Eh

Convergence Acceleration:
 DIIS                   CNVDIIS         .... on
   Start iteration      DIISMaxIt       ....    12
   Startup error        DIISStart       ....  0.200000
   # of expansion vecs  DIISMaxEq       ....     5
   Bias factor          DIISBfac        ....   1.050
   Max. coefficient     DIISMaxC        ....  10.000
 Newton-Raphson         CNVNR           .... off
 SOSCF                  CNVSOSCF        .... on
   Start iteration      SOSCFMaxIt      ....   150
   Startup grad/error   SOSCFStart      ....  0.003300
 Level Shifting         CNVShift        .... on
   Level shift para.    LevelShift      ....    0.2500
   Turn off err/grad.   ShiftErr        ....    0.0010
 Zerner damping         CNVZerner       .... off
 Static damping         CNVDamp         .... on
   Fraction old density DampFac         ....    0.7000
   Max. Damping (<1)    DampMax         ....    0.9800
   Min. Damping (>=0)   DampMin         ....    0.0000
   Turn off err/grad.   DampErr         ....    0.1000
 Fernandez-Rico         CNVRico         .... off

SCF Procedure:
 Maximum # iterations   MaxIter         ....   125
 SCF integral mode      SCFMode         .... Direct
   Integral package                     .... LIBINT
 Reset frequency        DirectResetFreq ....    20
 Integral Threshold     Thresh          ....  2.500e-11 Eh
 Primitive CutOff       TCut            ....  2.500e-12 Eh

Convergence Tolerance:
 Convergence Check Mode ConvCheckMode   .... Total+1el-Energy
 Convergence forced     ConvForced      .... 0
 Energy Change          TolE            ....  1.000e-08 Eh
 1-El. energy change                    ....  1.000e-05 Eh
 Orbital Gradient       TolG            ....  1.000e-05
 Orbital Rotation angle TolX            ....  1.000e-05
 DIIS Error             TolErr          ....  5.000e-07


Diagonalization of the overlap matrix:
Smallest eigenvalue                        ... 7.713e-06
Time for diagonalization                   ...    0.045 sec
Threshold for overlap eigenvalues          ... 1.000e-08
Number of eigenvalues below threshold      ... 0
Time for construction of square roots      ...    0.053 sec
Total time needed                          ...    0.100 sec

---------------------
INITIAL GUESS: MOREAD
---------------------
Guess MOs are being read from file: /home/si93yaq/projekte/phosphor_fprakt/def2ztvp_better_grid_recalc/01_alkin/01_alkin_000.006.orca.gbw
Input Geometry matches current geometry (good)
Input basis set matches current basis set (good)
MOs were renormalized
MOs were reorthogonalized (Cholesky)
                      ------------------
                      INITIAL GUESS DONE (   0.1 sec)
                      ------------------
-------------------
DFT GRID GENERATION
-------------------

General Integration Accuracy     IntAcc      ...  4.670
Radial Grid Type                 RadialGrid  ... Gauss-Chebyshev
Angular Grid (max. acc.)         AngularGrid ... Lebedev-302
Angular grid pruning method      GridPruning ... 3 (G Style)
Weight generation scheme         WeightScheme... Becke
Basis function cutoff            BFCut       ...    1.0000e-11
Integration weight cutoff        WCut        ...    1.0000e-14
Grids for H and He will be reduced by one unit

# of grid points (after initial pruning)     ... 101696 (   0.0 sec)
# of grid points (after weights+screening)   ...  93299 (   0.1 sec)
nearest neighbour list constructed           ...    0.0 sec
Grid point re-assignment to atoms done       ...    0.0 sec
Grid point division into batches done        ...    0.5 sec
Reduced shell lists constructed in    0.6 sec

Total number of grid points                  ...    93299
Total number of batches                      ...     1468
Average number of points per batch           ...       63
Average number of grid points per atom       ...     4665
Average number of shells per batch           ...    52.33 (31.91%)
Average number of basis functions per batch  ...   127.52 (30.36%)
Average number of large shells per batch     ...    34.10 (65.15%)
Average number of large basis fcns per batch ...    80.38 (63.03%)
Maximum spatial batch extension              ...   9.74, 14.61, 13.84 au
Average spatial batch extension              ...   0.12,  0.15,  0.15 au

Time for grid setup =    0.830 sec

--------------------
COSX GRID GENERATION
--------------------

General Integration Accuracy     IntAcc      ...  3.340
Radial Grid Type                 RadialGrid  ... Gauss-Chebyshev
Angular Grid (max. acc.)         AngularGrid ... Lebedev-50
Angular grid pruning method      GridPruning ... 3 (G Style)
Weight generation scheme         WeightScheme... Becke
Basis function cutoff            BFCut       ...    1.0000e-11
Integration weight cutoff        WCut        ...    1.0000e-14
Grids for H and He will be reduced by one unit

# of grid points (after initial pruning)     ...   9520 (   0.0 sec)
# of grid points (after weights+screening)   ...   8955 (   0.0 sec)
nearest neighbour list constructed           ...    0.0 sec
Grid point re-assignment to atoms done       ...    0.0 sec
Grid point division into batches done        ...    0.0 sec
Reduced shell lists constructed in    0.0 sec

Total number of grid points                  ...     8955
Total number of batches                      ...      150
Average number of points per batch           ...       59
Average number of grid points per atom       ...      448
Average number of shells per batch           ...    78.83 (48.07%)
Average number of basis functions per batch  ...   205.83 (49.01%)
Average number of large shells per batch     ...    57.83 (73.36%)
Average number of large basis fcns per batch ...   151.50 (73.60%)
Maximum spatial batch extension              ...   8.81, 13.62, 21.11 au
Average spatial batch extension              ...   0.20,  0.30,  0.37 au

Overlap Fitting                  UseSFitting ... on
Constructing numerical overlap ... done (      0.0 sec)
Inverting numerical overlap    ... done (      0.0 sec)
Obtaining analytic overlap     ... done (      0.0 sec)
Final contraction and storage  ... done (      0.0 sec)


General Integration Accuracy     IntAcc      ...  4.010
Radial Grid Type                 RadialGrid  ... Gauss-Chebyshev
Angular Grid (max. acc.)         AngularGrid ... Lebedev-50
Angular grid pruning method      GridPruning ... 3 (G Style)
Weight generation scheme         WeightScheme... Becke
Basis function cutoff            BFCut       ...    1.0000e-11
Integration weight cutoff        WCut        ...    1.0000e-14
Grids for H and He will be reduced by one unit

# of grid points (after initial pruning)     ...  14556 (   0.0 sec)
# of grid points (after weights+screening)   ...  13643 (   0.0 sec)
nearest neighbour list constructed           ...    0.0 sec
Grid point re-assignment to atoms done       ...    0.0 sec
Grid point division into batches done        ...    0.0 sec
Reduced shell lists constructed in    0.0 sec

Total number of grid points                  ...    13643
Total number of batches                      ...      221
Average number of points per batch           ...       61
Average number of grid points per atom       ...      682
Average number of shells per batch           ...    75.62 (46.11%)
Average number of basis functions per batch  ...   194.88 (46.40%)
Average number of large shells per batch     ...    54.50 (72.07%)
Average number of large basis fcns per batch ...   137.75 (70.69%)
Maximum spatial batch extension              ...  10.64, 16.64, 20.15 au
Average spatial batch extension              ...   0.20,  0.29,  0.34 au

Overlap Fitting                  UseSFitting ... on
Constructing numerical overlap ... done (      0.0 sec)
Inverting numerical overlap    ... done (      0.0 sec)
Obtaining analytic overlap     ... done (      0.0 sec)
Final contraction and storage  ... done (      0.0 sec)


General Integration Accuracy     IntAcc      ...  4.340
Radial Grid Type                 RadialGrid  ... Gauss-Chebyshev
Angular Grid (max. acc.)         AngularGrid ... Lebedev-194
Angular grid pruning method      GridPruning ... 3 (G Style)
Weight generation scheme         WeightScheme... Becke
Basis function cutoff            BFCut       ...    1.0000e-11
Integration weight cutoff        WCut        ...    1.0000e-14
Grids for H and He will be reduced by one unit

# of grid points (after initial pruning)     ...  51696 (   0.0 sec)
# of grid points (after weights+screening)   ...  47772 (   0.0 sec)
nearest neighbour list constructed           ...    0.0 sec
Grid point re-assignment to atoms done       ...    0.0 sec
Grid point division into batches done        ...    0.1 sec
Reduced shell lists constructed in    0.1 sec

Total number of grid points                  ...    47772
Total number of batches                      ...      758
Average number of points per batch           ...       63
Average number of grid points per atom       ...     2389
Average number of shells per batch           ...    60.61 (36.96%)
Average number of basis functions per batch  ...   151.22 (36.00%)
Average number of large shells per batch     ...    41.48 (68.44%)
Average number of large basis fcns per batch ...   102.96 (68.09%)
Maximum spatial batch extension              ...  11.19, 14.58, 15.77 au
Average spatial batch extension              ...   0.16,  0.19,  0.20 au

Overlap Fitting                  UseSFitting ... on
Constructing numerical overlap ... done (      0.1 sec)
Inverting numerical overlap    ... done (      0.0 sec)
Obtaining analytic overlap     ... done (      0.0 sec)
Final contraction and storage  ... done (      0.0 sec)

Time for X-Grid setup             =    0.881 sec
--------------
SCF ITERATIONS
--------------
ITER       Energy         Delta-E        Max-DP      RMS-DP      [F,P]     Damp
               ***  Starting incremental Fock matrix formation  ***
                      *** Initiating the SOSCF procedure ***
                      *** Re-Reading the Fockian *** 
                      *** Removing any level shift *** 
ITER      Energy       Delta-E        Grad      Rot      Max-DP    RMS-DP
  0   -536.30604535 -536.3060453482  0.000001  0.000001  0.000072  0.000001
               *** Restarting incremental Fock matrix formation ***
                  ***Gradient check signals convergence***
              ***Rediagonalizing the Fockian in SOSCF/NRSCF***

               *****************************************************
               *                     SUCCESS                       *
               *           SCF CONVERGED AFTER   1 CYCLES          *
               *****************************************************

Setting up the final grid:

General Integration Accuracy     IntAcc      ...  5.010
Radial Grid Type                 RadialGrid  ... Gauss-Chebyshev
Angular Grid (max. acc.)         AngularGrid ... Lebedev-434
Angular grid pruning method      GridPruning ... 3 (G Style)
Weight generation scheme         WeightScheme... Becke
Basis function cutoff            BFCut       ...    1.0000e-11
Integration weight cutoff        WCut        ...    1.0000e-14
Grids for H and He will be reduced by one unit

# of grid points (after initial pruning)     ... 182200 (   0.0 sec)
# of grid points (after weights+screening)   ... 166905 (   0.1 sec)
nearest neighbour list constructed           ...    0.0 sec
Grid point re-assignment to atoms done       ...    0.0 sec
Grid point division into batches done        ...    1.1 sec
Reduced shell lists constructed in    1.2 sec

Total number of grid points                  ...   166905
Total number of batches                      ...     2617
Average number of points per batch           ...       63
Average number of grid points per atom       ...     8345
Average number of shells per batch           ...    49.27 (30.04%)
Average number of basis functions per batch  ...   119.35 (28.42%)
Average number of large shells per batch     ...    31.81 (64.56%)
Average number of large basis fcns per batch ...    74.81 (62.68%)
Maximum spatial batch extension              ...   9.77, 13.00, 13.54 au
Average spatial batch extension              ...   0.11,  0.12,  0.13 au

Final grid set up in    1.5 sec
Final integration                            ... done (   0.8 sec)
Change in XC energy                          ...    -0.000663780
Integrated number of electrons               ...    83.999979801
Previous integrated no of electrons          ...    83.999888351
Old exchange energy                            =    -22.934080992 Eh
New exchange energy                            =    -22.934076675 Eh
Exchange energy change after final integration =      0.000004316 Eh
Total energy after final integration           =   -536.306704812 Eh
Final COS-X integration done in                =     2.892 sec

----------------
TOTAL SCF ENERGY
----------------

Total Energy       :         -536.30670481 Eh          -14593.64736 eV

Components:
Nuclear Repulsion  :          582.32743475 Eh           15845.93509 eV
Electronic Energy  :        -1118.63413956 Eh          -30439.58246 eV
One Electron Energy:        -1881.07168929 Eh          -51186.56294 eV
Two Electron Energy:          762.43754973 Eh           20746.98048 eV

Virial components:
Potential Energy   :        -1070.37205333 Eh          -29126.30432 eV
Kinetic Energy     :          534.06534852 Eh           14532.65696 eV
Virial Ratio       :            2.00419678


DFT components:
N(Alpha)           :       41.999989900732 electrons
N(Beta)            :       41.999989900732 electrons
N(Total)           :       83.999979801463 electrons
E(XC)              :      -51.404129658942 Eh       
DFET-embed. en.    :        0.000000000000 Eh       

---------------
SCF CONVERGENCE
---------------

  Last Energy change         ...    1.3665e-10  Tolerance :   1.0000e-08
  Last MAX-Density change    ...    2.5535e-15  Tolerance :   1.0000e-07
  Last RMS-Density change    ...    1.8168e-17  Tolerance :   5.0000e-09
  Last Orbital Gradient      ...    9.4654e-07  Tolerance :   1.0000e-05
  Last Orbital Rotation      ...    2.3007e-06  Tolerance :   1.0000e-05

             **** THE GBW FILE WAS UPDATED (orca.gbw) ****
             **** DENSITY FILE WAS UPDATED (orca.scfp) ****
             **** ENERGY FILE WAS UPDATED (orca.en.tmp) ****
             **** THE GBW FILE WAS UPDATED (orca.gbw) ****
             **** DENSITY FILE WAS UPDATED (orca.scfp) ****
----------------
ORBITAL ENERGIES
----------------

  NO   OCC          E(Eh)            E(eV) 
   0   2.0000     -19.287758      -524.8466 
   1   2.0000     -19.225149      -523.1429 
   2   2.0000     -10.427638      -283.7504 
   3   2.0000     -10.332857      -281.1713 
   4   2.0000     -10.319328      -280.8032 
   5   2.0000     -10.303559      -280.3741 
   6   2.0000     -10.299264      -280.2572 
   7   2.0000     -10.299127      -280.2535 
   8   2.0000     -10.297133      -280.1992 
   9   2.0000     -10.294796      -280.1357 
  10   2.0000     -10.294653      -280.1317 
  11   2.0000     -10.289964      -280.0041 
  12   2.0000      -1.237855       -33.6837 
  13   2.0000      -1.145130       -31.1606 
  14   2.0000      -1.002292       -27.2738 
  15   2.0000      -0.922368       -25.0989 
  16   2.0000      -0.884609       -24.0714 
  17   2.0000      -0.882945       -24.0261 
  18   2.0000      -0.843490       -22.9525 
  19   2.0000      -0.759702       -20.6726 
  20   2.0000      -0.734386       -19.9837 
  21   2.0000      -0.721363       -19.6293 
  22   2.0000      -0.665030       -18.0964 
  23   2.0000      -0.651634       -17.7319 
  24   2.0000      -0.600579       -16.3426 
  25   2.0000      -0.595956       -16.2168 
  26   2.0000      -0.586833       -15.9685 
  27   2.0000      -0.575605       -15.6630 
  28   2.0000      -0.549757       -14.9596 
  29   2.0000      -0.537773       -14.6335 
  30   2.0000      -0.534345       -14.5403 
  31   2.0000      -0.515109       -14.0168 
  32   2.0000      -0.501399       -13.6438 
  33   2.0000      -0.468221       -12.7409 
  34   2.0000      -0.465517       -12.6674 
  35   2.0000      -0.458123       -12.4662 
  36   2.0000      -0.420644       -11.4463 
  37   2.0000      -0.409872       -11.1532 
  38   2.0000      -0.407889       -11.0992 
  39   2.0000      -0.373765       -10.1707 
  40   2.0000      -0.359450        -9.7811 
  41   2.0000      -0.334783        -9.1099 
  42   0.0000       0.003519         0.0958 
  43   0.0000       0.050041         1.3617 
  44   0.0000       0.085535         2.3275 
  45   0.0000       0.112260         3.0547 
  46   0.0000       0.123313         3.3555 
  47   0.0000       0.134354         3.6560 
  48   0.0000       0.155389         4.2283 
  49   0.0000       0.158081         4.3016 
  50   0.0000       0.172376         4.6906 
  51   0.0000       0.183949         5.0055 
  52   0.0000       0.189758         5.1636 
  53   0.0000       0.192170         5.2292 
  54   0.0000       0.194835         5.3017 
  55   0.0000       0.196859         5.3568 
  56   0.0000       0.211801         5.7634 
  57   0.0000       0.215133         5.8541 
  58   0.0000       0.248021         6.7490 
  59   0.0000       0.252722         6.8769 
  60   0.0000       0.264811         7.2059 
  61   0.0000       0.277810         7.5596 
  62   0.0000       0.281023         7.6470 
  63   0.0000       0.285505         7.7690 
  64   0.0000       0.289650         7.8818 
  65   0.0000       0.301196         8.1960 
  66   0.0000       0.301436         8.2025 
  67   0.0000       0.310881         8.4595 
  68   0.0000       0.311313         8.4712 
  69   0.0000       0.321585         8.7508 
  70   0.0000       0.335981         9.1425 
  71   0.0000       0.349425         9.5083 
  72   0.0000       0.355519         9.6742 
  73   0.0000       0.360045         9.7973 
  74   0.0000       0.386495        10.5171 
  75   0.0000       0.399242        10.8639 
  76   0.0000       0.400026        10.8853 
  77   0.0000       0.403453        10.9785 
  78   0.0000       0.409861        11.1529 
  79   0.0000       0.421021        11.4566 
  80   0.0000       0.423261        11.5175 
  81   0.0000       0.433617        11.7993 
  82   0.0000       0.447144        12.1674 
  83   0.0000       0.450835        12.2679 
  84   0.0000       0.457519        12.4497 
  85   0.0000       0.469824        12.7846 
  86   0.0000       0.470324        12.7982 
  87   0.0000       0.477571        12.9954 
  88   0.0000       0.486540        13.2394 
  89   0.0000       0.496971        13.5233 
  90   0.0000       0.503069        13.6892 
  91   0.0000       0.514817        14.0089 
  92   0.0000       0.522832        14.2270 
  93   0.0000       0.528058        14.3692 
  94   0.0000       0.540281        14.7018 
  95   0.0000       0.543972        14.8022 
  96   0.0000       0.550283        14.9740 
  97   0.0000       0.557263        15.1639 
  98   0.0000       0.576001        15.6738 
  99   0.0000       0.578101        15.7309 
 100   0.0000       0.581282        15.8175 
 101   0.0000       0.594640        16.1810 
 102   0.0000       0.597787        16.2666 
 103   0.0000       0.609010        16.5720 
 104   0.0000       0.616862        16.7857 
 105   0.0000       0.642781        17.4910 
 106   0.0000       0.647734        17.6257 
 107   0.0000       0.657102        17.8806 
 108   0.0000       0.659888        17.9565 
 109   0.0000       0.672401        18.2970 
 110   0.0000       0.705067        19.1858 
 111   0.0000       0.707849        19.2615 
 112   0.0000       0.729253        19.8440 
 113   0.0000       0.731489        19.9048 
 114   0.0000       0.747425        20.3385 
 115   0.0000       0.759538        20.6681 
 116   0.0000       0.763757        20.7829 
 117   0.0000       0.776607        21.1326 
 118   0.0000       0.781698        21.2711 
 119   0.0000       0.786749        21.4085 
 120   0.0000       0.795447        21.6452 
 121   0.0000       0.820220        22.3193 
 122   0.0000       0.832000        22.6399 
 123   0.0000       0.837781        22.7972 
 124   0.0000       0.842994        22.9390 
 125   0.0000       0.878196        23.8969 
 126   0.0000       0.900367        24.5002 
 127   0.0000       0.909490        24.7485 
 128   0.0000       0.913098        24.8467 
 129   0.0000       0.916401        24.9365 
 130   0.0000       0.930550        25.3215 
 131   0.0000       0.933981        25.4149 
 132   0.0000       0.953691        25.9513 
 133   0.0000       0.971989        26.4492 
 134   0.0000       0.979324        26.6488 
 135   0.0000       0.995108        27.0783 
 136   0.0000       1.019624        27.7454 
 137   0.0000       1.021316        27.7914 
 138   0.0000       1.037984        28.2450 
 139   0.0000       1.057211        28.7682 
 140   0.0000       1.058860        28.8130 
 141   0.0000       1.079925        29.3862 
 142   0.0000       1.103051        30.0155 
 143   0.0000       1.119838        30.4723 
 144   0.0000       1.122942        30.5568 
 145   0.0000       1.145158        31.1613 
 146   0.0000       1.152916        31.3724 
 147   0.0000       1.156933        31.4817 
 148   0.0000       1.164786        31.6954 
 149   0.0000       1.206785        32.8383 
 150   0.0000       1.213092        33.0099 
 151   0.0000       1.240971        33.7685 
 152   0.0000       1.245433        33.8899 
 153   0.0000       1.245874        33.9020 
 154   0.0000       1.287504        35.0348 
 155   0.0000       1.306079        35.5402 
 156   0.0000       1.307719        35.5848 
 157   0.0000       1.323723        36.0203 
 158   0.0000       1.363360        37.0989 
 159   0.0000       1.369312        37.2609 
 160   0.0000       1.375156        37.4199 
 161   0.0000       1.377576        37.4857 
 162   0.0000       1.407422        38.2979 
 163   0.0000       1.423281        38.7294 
 164   0.0000       1.462729        39.8029 
 165   0.0000       1.470235        40.0071 
 166   0.0000       1.472315        40.0637 
 167   0.0000       1.511183        41.1214 
 168   0.0000       1.516331        41.2615 
 169   0.0000       1.546125        42.0722 
 170   0.0000       1.556509        42.3548 
 171   0.0000       1.561185        42.4820 
 172   0.0000       1.568571        42.6830 
 173   0.0000       1.579392        42.9774 
 174   0.0000       1.584465        43.1155 
 175   0.0000       1.589466        43.2516 
 176   0.0000       1.599386        43.5215 
 177   0.0000       1.611873        43.8613 
 178   0.0000       1.621224        44.1157 
 179   0.0000       1.628437        44.3120 
 180   0.0000       1.653076        44.9825 
 181   0.0000       1.661690        45.2169 
 182   0.0000       1.677343        45.6428 
 183   0.0000       1.696086        46.1528 
 184   0.0000       1.697503        46.1914 
 185   0.0000       1.720329        46.8125 
 186   0.0000       1.736507        47.2528 
 187   0.0000       1.753662        47.7196 
 188   0.0000       1.774050        48.2743 
 189   0.0000       1.778209        48.3875 
 190   0.0000       1.784564        48.5604 
 191   0.0000       1.795656        48.8623 
 192   0.0000       1.795978        48.8711 
 193   0.0000       1.816532        49.4303 
 194   0.0000       1.859805        50.6079 
 195   0.0000       1.863589        50.7108 
 196   0.0000       1.906772        51.8859 
 197   0.0000       1.910987        52.0006 
 198   0.0000       1.931477        52.5582 
 199   0.0000       1.937281        52.7161 
 200   0.0000       1.939600        52.7792 
 201   0.0000       1.986068        54.0437 
 202   0.0000       1.998589        54.3844 
 203   0.0000       2.014441        54.8157 
 204   0.0000       2.036073        55.4044 
 205   0.0000       2.046049        55.6758 
 206   0.0000       2.055503        55.9331 
 207   0.0000       2.093324        56.9623 
 208   0.0000       2.108475        57.3745 
 209   0.0000       2.118187        57.6388 
 210   0.0000       2.123618        57.7866 
 211   0.0000       2.155857        58.6638 
 212   0.0000       2.165690        58.9314 
 213   0.0000       2.166445        58.9520 
 214   0.0000       2.185986        59.4837 
 215   0.0000       2.198052        59.8120 
 216   0.0000       2.219940        60.4076 
 217   0.0000       2.238816        60.9213 
 218   0.0000       2.239172        60.9310 
 219   0.0000       2.249551        61.2134 
 220   0.0000       2.281830        62.0918 
 221   0.0000       2.309566        62.8465 
 222   0.0000       2.321574        63.1732 
 223   0.0000       2.335283        63.5463 
 224   0.0000       2.343244        63.7629 
 225   0.0000       2.356737        64.1301 
 226   0.0000       2.407632        65.5150 
 227   0.0000       2.417209        65.7756 
 228   0.0000       2.425475        66.0005 
 229   0.0000       2.454443        66.7888 
 230   0.0000       2.485023        67.6209 
 231   0.0000       2.509143        68.2772 
 232   0.0000       2.521270        68.6072 
 233   0.0000       2.532327        68.9081 
 234   0.0000       2.579187        70.1832 
 235   0.0000       2.596716        70.6602 
 236   0.0000       2.610912        71.0465 
 237   0.0000       2.614104        71.1334 
 238   0.0000       2.622493        71.3617 
 239   0.0000       2.632942        71.6460 
 240   0.0000       2.648102        72.0585 
 241   0.0000       2.663980        72.4906 
 242   0.0000       2.667377        72.5830 
 243   0.0000       2.693073        73.2822 
 244   0.0000       2.698455        73.4287 
 245   0.0000       2.714198        73.8571 
 246   0.0000       2.718527        73.9749 
 247   0.0000       2.750684        74.8499 
 248   0.0000       2.754301        74.9483 
 249   0.0000       2.759361        75.0860 
 250   0.0000       2.766748        75.2870 
 251   0.0000       2.780739        75.6677 
 252   0.0000       2.796001        76.0831 
 253   0.0000       2.819527        76.7232 
 254   0.0000       2.822767        76.8114 
 255   0.0000       2.825652        76.8899 
 256   0.0000       2.847800        77.4926 
 257   0.0000       2.850706        77.5716 
 258   0.0000       2.871394        78.1346 
 259   0.0000       2.877942        78.3128 
 260   0.0000       2.899393        78.8965 
 261   0.0000       2.902597        78.9837 
 262   0.0000       2.906462        79.0888 
 263   0.0000       2.923146        79.5429 
 264   0.0000       2.934173        79.8429 
 265   0.0000       2.946522        80.1790 
 266   0.0000       2.955361        80.4195 
 267   0.0000       2.966336        80.7181 
 268   0.0000       2.968049        80.7647 
 269   0.0000       2.982014        81.1447 
 270   0.0000       2.988155        81.3118 
 271   0.0000       2.992990        81.4434 
 272   0.0000       3.007880        81.8486 
 273   0.0000       3.008722        81.8715 
 274   0.0000       3.045475        82.8716 
 275   0.0000       3.074310        83.6562 
 276   0.0000       3.076106        83.7051 
 277   0.0000       3.104801        84.4859 
 278   0.0000       3.107747        84.5661 
 279   0.0000       3.119038        84.8733 
 280   0.0000       3.135320        85.3164 
 281   0.0000       3.144502        85.5662 
 282   0.0000       3.158551        85.9485 
 283   0.0000       3.161589        86.0312 
 284   0.0000       3.164558        86.1120 
 285   0.0000       3.188112        86.7529 
 286   0.0000       3.202553        87.1459 
 287   0.0000       3.207756        87.2875 
 288   0.0000       3.216531        87.5263 
 289   0.0000       3.220324        87.6295 
 290   0.0000       3.230297        87.9008 
 291   0.0000       3.248743        88.4028 
 292   0.0000       3.268178        88.9316 
 293   0.0000       3.294290        89.6422 
 294   0.0000       3.301098        89.8274 
 295   0.0000       3.303784        89.9005 
 296   0.0000       3.350925        91.1833 
 297   0.0000       3.353514        91.2538 
 298   0.0000       3.355100        91.2969 
 299   0.0000       3.368975        91.6745 
 300   0.0000       3.371696        91.7485 
 301   0.0000       3.398731        92.4842 
 302   0.0000       3.399953        92.5174 
 303   0.0000       3.423697        93.1635 
 304   0.0000       3.436974        93.5248 
 305   0.0000       3.453786        93.9823 
 306   0.0000       3.461965        94.2048 
 307   0.0000       3.464294        94.2682 
 308   0.0000       3.467910        94.3666 
 309   0.0000       3.471842        94.4736 
 310   0.0000       3.489094        94.9431 
 311   0.0000       3.495755        95.1243 
 312   0.0000       3.502426        95.3059 
 313   0.0000       3.524359        95.9027 
 314   0.0000       3.534616        96.1818 
 315   0.0000       3.546808        96.5135 
 316   0.0000       3.552437        96.6667 
 317   0.0000       3.575245        97.2874 
 318   0.0000       3.590839        97.7117 
 319   0.0000       3.597470        97.8921 
 320   0.0000       3.613289        98.3226 
 321   0.0000       3.625158        98.6456 
 322   0.0000       3.644874        99.1821 
 323   0.0000       3.647152        99.2440 
 324   0.0000       3.680269       100.1452 
 325   0.0000       3.689761       100.4035 
 326   0.0000       3.730068       101.5003 
 327   0.0000       3.745797       101.9283 
 328   0.0000       3.763429       102.4081 
 329   0.0000       3.766892       102.5023 
 330   0.0000       3.792909       103.2103 
 331   0.0000       3.813807       103.7790 
 332   0.0000       3.852633       104.8355 
 333   0.0000       3.872488       105.3758 
 334   0.0000       3.901545       106.1664 
 335   0.0000       3.937040       107.1323 
 336   0.0000       4.003322       108.9359 
 337   0.0000       4.057248       110.4033 
 338   0.0000       4.073526       110.8463 
 339   0.0000       4.091859       111.3451 
 340   0.0000       4.106762       111.7507 
 341   0.0000       4.135494       112.5325 
 342   0.0000       4.150974       112.9537 
 343   0.0000       4.172453       113.5382 
 344   0.0000       4.207332       114.4873 
 345   0.0000       4.228983       115.0765 
 346   0.0000       4.272515       116.2610 
 347   0.0000       4.276267       116.3631 
 348   0.0000       4.296229       116.9063 
 349   0.0000       4.301928       117.0614 
 350   0.0000       4.307257       117.2064 
 351   0.0000       4.318518       117.5129 
 352   0.0000       4.357857       118.5833 
 353   0.0000       4.359936       118.6399 
 354   0.0000       4.390081       119.4602 
 355   0.0000       4.399807       119.7248 
 356   0.0000       4.418384       120.2303 
 357   0.0000       4.476702       121.8172 
 358   0.0000       4.505908       122.6120 
 359   0.0000       4.533607       123.3657 
 360   0.0000       4.614739       125.5734 
 361   0.0000       4.669448       127.0621 
 362   0.0000       4.676893       127.2647 
 363   0.0000       4.737910       128.9251 
 364   0.0000       4.757534       129.4591 
 365   0.0000       4.774934       129.9326 
 366   0.0000       4.777637       130.0061 
 367   0.0000       4.823617       131.2573 
 368   0.0000       4.826662       131.3402 
 369   0.0000       4.872615       132.5906 
 370   0.0000       4.974193       135.3547 
 371   0.0000       4.982048       135.5684 
 372   0.0000       5.013803       136.4325 
 373   0.0000       5.161001       140.4380 
 374   0.0000       5.210799       141.7931 
 375   0.0000       5.282321       143.7393 
 376   0.0000       5.300896       144.2447 
 377   0.0000       5.310799       144.5142 
 378   0.0000       5.334246       145.1522 
 379   0.0000       5.346140       145.4759 
 380   0.0000       5.371085       146.1547 
 381   0.0000       5.404885       147.0744 
 382   0.0000       5.458934       148.5452 
 383   0.0000       5.547750       150.9619 
 384   0.0000       5.605042       152.5209 
 385   0.0000       5.612635       152.7276 
 386   0.0000       5.671775       154.3369 
 387   0.0000       5.751845       156.5157 
 388   0.0000       5.781871       157.3327 
 389   0.0000       5.810908       158.1229 
 390   0.0000       5.853901       159.2928 
 391   0.0000       5.952956       161.9882 
 392   0.0000       6.089617       165.7069 
 393   0.0000       6.218797       169.2221 
 394   0.0000       6.313814       171.8076 
 395   0.0000       6.337902       172.4631 
 396   0.0000       6.457891       175.7281 
 397   0.0000       6.531058       177.7191 
 398   0.0000       6.667853       181.4415 
 399   0.0000       6.745895       183.5651 
 400   0.0000       6.801050       185.0660 
 401   0.0000       6.848117       186.3467 
 402   0.0000       6.972003       189.7178 
 403   0.0000       6.984214       190.0501 
 404   0.0000       7.119380       193.7282 
 405   0.0000       7.233601       196.8363 
 406   0.0000       7.383099       200.9043 
 407   0.0000       7.527667       204.8382 
 408   0.0000      22.264269       605.8416 
 409   0.0000      22.451219       610.9287 
 410   0.0000      22.689495       617.4126 
 411   0.0000      22.712838       618.0477 
 412   0.0000      22.830454       621.2482 
 413   0.0000      22.931858       624.0076 
 414   0.0000      23.256818       632.8502 
 415   0.0000      23.480350       638.9328 
 416   0.0000      23.813668       648.0029 
 417   0.0000      24.198604       658.4775 
 418   0.0000      43.962878      1196.2907 
 419   0.0000      44.139851      1201.1064 

                    ********************************
                    * MULLIKEN POPULATION ANALYSIS *
                    ********************************

-----------------------
MULLIKEN ATOMIC CHARGES
-----------------------
   0 H :    0.146540
   1 C :   -0.171206
   2 C :   -0.152028
   3 H :    0.130067
   4 C :   -0.081150
   5 C :   -0.157101
   6 H :    0.129326
   7 C :   -0.168181
   8 H :    0.142588
   9 C :   -0.003516
  10 C :    0.088412
  11 C :    0.056961
  12 C :    0.280654
  13 O :   -0.248132
  14 O :   -0.332988
  15 C :   -0.198995
  16 H :    0.134178
  17 H :    0.136752
  18 H :    0.136465
  19 H :    0.131356
Sum of atomic charges:   -0.0000000

--------------------------------
MULLIKEN REDUCED ORBITAL CHARGES
--------------------------------
  0 H s       :     0.831432  s :     0.831432
      pz      :     0.004620  p :     0.022029
      px      :     0.004095
      py      :     0.013313
  1 C s       :     3.203911  s :     3.203911
      pz      :     0.947226  p :     2.869084
      px      :     0.924676
      py      :     0.997182
      dz2     :     0.005171  d :     0.090808
      dxz     :     0.023111
      dyz     :     0.006226
      dx2y2   :     0.027661
      dxy     :     0.028640
      f0      :     0.001504  f :     0.007403
      f+1     :     0.000674
      f-1     :     0.000642
      f+2     :     0.000474
      f-2     :     0.000990
      f+3     :     0.001753
      f-3     :     0.001367
  2 C s       :     3.192797  s :     3.192797
      pz      :     0.960104  p :     2.865953
      px      :     0.953528
      py      :     0.952320
      dz2     :     0.006112  d :     0.085893
      dxz     :     0.013629
      dyz     :     0.013569
      dx2y2   :     0.024070
      dxy     :     0.028513
      f0      :     0.001424  f :     0.007386
      f+1     :     0.000669
      f-1     :     0.000845
      f+2     :     0.001081
      f-2     :     0.000276
      f+3     :     0.001652
      f-3     :     0.001438
  3 H s       :     0.847834  s :     0.847834
      pz      :     0.004511  p :     0.022099
      px      :     0.009094
      py      :     0.008494
  4 C s       :     3.161509  s :     3.161509
      pz      :     0.944911  p :     2.825513
      px      :     0.960475
      py      :     0.920126
      dz2     :     0.005790  d :     0.086818
      dxz     :     0.007109
      dyz     :     0.020677
      dx2y2   :     0.028198
      dxy     :     0.025044
      f0      :     0.001436  f :     0.007310
      f+1     :     0.000616
      f-1     :     0.000788
      f+2     :     0.000465
      f-2     :     0.000921
      f+3     :     0.001663
      f-3     :     0.001421
  5 C s       :     3.197544  s :     3.197544
      pz      :     0.962627  p :     2.866103
      px      :     0.922521
      py      :     0.980954
      dz2     :     0.005101  d :     0.086070
      dxz     :     0.021595
      dyz     :     0.006488
      dx2y2   :     0.027752
      dxy     :     0.025135
      f0      :     0.001545  f :     0.007383
      f+1     :     0.000635
      f-1     :     0.000657
      f+2     :     0.000474
      f-2     :     0.000955
      f+3     :     0.001618
      f-3     :     0.001498
  6 H s       :     0.848584  s :     0.848584
      pz      :     0.004777  p :     0.022091
      px      :     0.004093
      py      :     0.013221
  7 C s       :     3.197893  s :     3.197893
      pz      :     0.946542  p :     2.872183
      px      :     0.974944
      py      :     0.950696
      dz2     :     0.006487  d :     0.090697
      dxz     :     0.014270
      dyz     :     0.013972
      dx2y2   :     0.026400
      dxy     :     0.029568
      f0      :     0.001387  f :     0.007408
      f+1     :     0.000701
      f-1     :     0.000832
      f+2     :     0.001088
      f-2     :     0.000307
      f+3     :     0.001513
      f-3     :     0.001580
  8 H s       :     0.835359  s :     0.835359
      pz      :     0.004370  p :     0.022053
      px      :     0.009299
      py      :     0.008384
  9 C s       :     3.350637  s :     3.350637
      pz      :     0.963151  p :     2.525782
      px      :     0.687906
      py      :     0.874725
      dz2     :     0.007221  d :     0.117585
      dxz     :     0.019455
      dyz     :     0.022973
      dx2y2   :     0.031423
      dxy     :     0.036513
      f0      :     0.001665  f :     0.009512
      f+1     :     0.000806
      f-1     :     0.000904
      f+2     :     0.000724
      f-2     :     0.001037
      f+3     :     0.002355
      f-3     :     0.002021
 10 C s       :     3.216516  s :     3.216516
      pz      :     0.904022  p :     2.622696
      px      :     0.721799
      py      :     0.996875
      dz2     :     0.000046  d :     0.061990
      dxz     :     0.031623
      dyz     :     0.003086
      dx2y2   :     0.008521
      dxy     :     0.018715
      f0      :     0.001459  f :     0.010385
      f+1     :     0.000781
      f-1     :     0.000297
      f+2     :     0.001818
      f-2     :     0.000819
      f+3     :     0.002788
      f-3     :     0.002424
 11 C s       :     3.199575  s :     3.199575
      pz      :     1.017837  p :     2.688465
      px      :     0.751597
      py      :     0.919031
      dz2     :     0.001117  d :     0.043931
      dxz     :     0.013336
      dyz     :     0.002445
      dx2y2   :     0.009917
      dxy     :     0.017117
      f0      :     0.001438  f :     0.011069
      f+1     :     0.000920
      f-1     :     0.000316
      f+2     :     0.001814
      f-2     :     0.000971
      f+3     :     0.003078
      f-3     :     0.002531
 12 C s       :     3.097217  s :     3.097217
      pz      :     0.773812  p :     2.323509
      px      :     0.812925
      py      :     0.736771
      dz2     :     0.011134  d :     0.274443
      dxz     :     0.029304
      dyz     :     0.071135
      dx2y2   :     0.066922
      dxy     :     0.095949
      f0      :     0.002911  f :     0.024177
      f+1     :     0.001034
      f-1     :     0.001968
      f+2     :     0.002035
      f-2     :     0.003500
      f+3     :     0.006188
      f-3     :     0.006542
 13 O s       :     3.760734  s :     3.760734
      pz      :     1.707386  p :     4.444765
      px      :     1.208696
      py      :     1.528683
      dz2     :     0.004734  d :     0.040493
      dxz     :     0.005754
      dyz     :     0.004693
      dx2y2   :     0.009970
      dxy     :     0.015341
      f0      :     0.000292  f :     0.002140
      f+1     :     0.000374
      f-1     :     0.000200
      f+2     :     0.000115
      f-2     :     0.000250
      f+3     :     0.000467
      f-3     :     0.000442
 14 O s       :     3.833017  s :     3.833017
      pz      :     1.389256  p :     4.466971
      px      :     1.727705
      py      :     1.350010
      dz2     :     0.003123  d :     0.031098
      dxz     :     0.000898
      dyz     :     0.010647
      dx2y2   :     0.008424
      dxy     :     0.008007
      f0      :     0.000171  f :     0.001902
      f+1     :     0.000029
      f-1     :     0.000217
      f+2     :     0.000368
      f-2     :     0.000141
      f+3     :     0.000498
      f-3     :     0.000478
 15 C s       :     3.247314  s :     3.247314
      pz      :     1.090284  p :     2.859563
      px      :     0.698267
      py      :     1.071012
      dz2     :     0.008226  d :     0.084858
      dxz     :     0.026534
      dyz     :     0.010616
      dx2y2   :     0.014907
      dxy     :     0.024574
      f0      :     0.000983  f :     0.007260
      f+1     :     0.000673
      f-1     :     0.000922
      f+2     :     0.001252
      f-2     :     0.000237
      f+3     :     0.001804
      f-3     :     0.001389
 16 H s       :     0.845530  s :     0.845530
      pz      :     0.004286  p :     0.020292
      px      :     0.005536
      py      :     0.010470
 17 H s       :     0.842931  s :     0.842931
      pz      :     0.011370  p :     0.020317
      px      :     0.002957
      py      :     0.005989
 18 H s       :     0.843228  s :     0.843228
      pz      :     0.008711  p :     0.020307
      px      :     0.003531
      py      :     0.008065
 19 H s       :     0.846635  s :     0.846635
      pz      :     0.004509  p :     0.022009
      px      :     0.013131
      py      :     0.004369


                     *******************************
                     * LOEWDIN POPULATION ANALYSIS *
                     *******************************

----------------------
LOEWDIN ATOMIC CHARGES
----------------------
   0 H :    0.156520
   1 C :   -0.078633
   2 C :   -0.133429
   3 H :    0.148335
   4 C :   -0.127799
   5 C :   -0.134107
   6 H :    0.148112
   7 C :   -0.080619
   8 H :    0.155503
   9 C :   -0.141742
  10 C :    0.015094
  11 C :   -0.009615
  12 C :   -0.489412
  13 O :    0.254180
  14 O :    0.130731
  15 C :   -0.302651
  16 H :    0.113698
  17 H :    0.114222
  18 H :    0.114147
  19 H :    0.147465

-------------------------------
LOEWDIN REDUCED ORBITAL CHARGES
-------------------------------
  0 H s       :     0.784395  s :     0.784395
      pz      :     0.013552  p :     0.059085
      px      :     0.011903
      py      :     0.033631
  1 C s       :     2.754156  s :     2.754156
      pz      :     0.865423  p :     2.899498
      px      :     1.046433
      py      :     0.987643
      dz2     :     0.025306  d :     0.381674
      dxz     :     0.075554
      dyz     :     0.020077
      dx2y2   :     0.145246
      dxy     :     0.115492
      f0      :     0.003384  f :     0.043304
      f+1     :     0.004505
      f-1     :     0.002799
      f+2     :     0.002921
      f-2     :     0.006756
      f+3     :     0.012339
      f-3     :     0.010600
  2 C s       :     2.760188  s :     2.760188
      pz      :     0.885259  p :     2.943330
      px      :     1.027969
      py      :     1.030102
      dz2     :     0.029001  d :     0.386030
      dxz     :     0.045104
      dyz     :     0.045969
      dx2y2   :     0.100686
      dxy     :     0.165270
      f0      :     0.003194  f :     0.043881
      f+1     :     0.003757
      f-1     :     0.003973
      f+2     :     0.007452
      f-2     :     0.002117
      f+3     :     0.012242
      f-3     :     0.011147
  3 H s       :     0.793254  s :     0.793254
      pz      :     0.013079  p :     0.058411
      px      :     0.023283
      py      :     0.022049
  4 C s       :     2.762285  s :     2.762285
      pz      :     0.871039  p :     2.932820
      px      :     0.999041
      py      :     1.062740
      dz2     :     0.027863  d :     0.388826
      dxz     :     0.021753
      dyz     :     0.072290
      dx2y2   :     0.147228
      dxy     :     0.119692
      f0      :     0.003243  f :     0.043868
      f+1     :     0.003153
      f-1     :     0.004413
      f+2     :     0.003433
      f-2     :     0.006230
      f+3     :     0.012425
      f-3     :     0.010971
  5 C s       :     2.760103  s :     2.760103
      pz      :     0.883722  p :     2.943845
      px      :     1.066460
      py      :     0.993663
      dz2     :     0.025094  d :     0.386243
      dxz     :     0.073894
      dyz     :     0.020230
      dx2y2   :     0.152649
      dxy     :     0.114377
      f0      :     0.003377  f :     0.043916
      f+1     :     0.004613
      f-1     :     0.002833
      f+2     :     0.002982
      f-2     :     0.006428
      f+3     :     0.012394
      f-3     :     0.011288
  6 H s       :     0.793494  s :     0.793494
      pz      :     0.013694  p :     0.058394
      px      :     0.011926
      py      :     0.032773
  7 C s       :     2.753708  s :     2.753708
      pz      :     0.867735  p :     2.900828
      px      :     1.027436
      py      :     1.005656
      dz2     :     0.029576  d :     0.382683
      dxz     :     0.046247
      dyz     :     0.046386
      dx2y2   :     0.101243
      dxy     :     0.159231
      f0      :     0.003183  f :     0.043400
      f+1     :     0.003709
      f-1     :     0.003939
      f+2     :     0.007745
      f-2     :     0.002082
      f+3     :     0.011504
      f-3     :     0.011239
  8 H s       :     0.785501  s :     0.785501
      pz      :     0.012959  p :     0.058996
      px      :     0.024167
      py      :     0.021870
  9 C s       :     2.692302  s :     2.692302
      pz      :     0.863567  p :     2.868674
      px      :     0.969405
      py      :     1.035703
      dz2     :     0.036401  d :     0.522053
      dxz     :     0.065476
      dyz     :     0.077646
      dx2y2   :     0.176859
      dxy     :     0.165671
      f0      :     0.004069  f :     0.058714
      f+1     :     0.004521
      f-1     :     0.004472
      f+2     :     0.005965
      f-2     :     0.007372
      f+3     :     0.017226
      f-3     :     0.015089
 10 C s       :     2.779347  s :     2.779347
      pz      :     0.836632  p :     2.825446
      px      :     1.093064
      py      :     0.895751
      dz2     :     0.026683  d :     0.333003
      dxz     :     0.112541
      dyz     :     0.011025
      dx2y2   :     0.081208
      dxy     :     0.101547
      f0      :     0.004827  f :     0.047109
      f+1     :     0.007310
      f-1     :     0.001277
      f+2     :     0.006122
      f-2     :     0.002659
      f+3     :     0.012379
      f-3     :     0.012535
 11 C s       :     2.791767  s :     2.791767
      pz      :     0.921943  p :     2.900292
      px      :     1.084349
      py      :     0.894000
      dz2     :     0.027004  d :     0.268600
      dxz     :     0.068039
      dyz     :     0.009383
      dx2y2   :     0.076948
      dxy     :     0.087226
      f0      :     0.004786  f :     0.048957
      f+1     :     0.007634
      f-1     :     0.001412
      f+2     :     0.005885
      f-2     :     0.003068
      f+3     :     0.012807
      f-3     :     0.013365
 12 C s       :     2.737169  s :     2.737169
      pz      :     0.746982  p :     2.635165
      px      :     0.931674
      py      :     0.956509
      dz2     :     0.067195  d :     0.962798
      dxz     :     0.089904
      dyz     :     0.189691
      dx2y2   :     0.276382
      dxy     :     0.339627
      f0      :     0.009508  f :     0.154280
      f+1     :     0.006925
      f-1     :     0.013469
      f+2     :     0.014704
      f-2     :     0.023225
      f+3     :     0.041999
      f-3     :     0.044450
 13 O s       :     3.249636  s :     3.249636
      pz      :     1.571066  p :     4.379220
      px      :     1.272459
      py      :     1.535695
      dz2     :     0.011697  d :     0.110016
      dxz     :     0.018442
      dyz     :     0.007664
      dx2y2   :     0.031666
      dxy     :     0.040548
      f0      :     0.000595  f :     0.006947
      f+1     :     0.000811
      f-1     :     0.000416
      f+2     :     0.000497
      f-2     :     0.000797
      f+3     :     0.001863
      f-3     :     0.001968
 14 O s       :     3.392792  s :     3.392792
      pz      :     1.312067  p :     4.402180
      px      :     1.594839
      py      :     1.495274
      dz2     :     0.008200  d :     0.067946
      dxz     :     0.001466
      dyz     :     0.015427
      dx2y2   :     0.024013
      dxy     :     0.018840
      f0      :     0.000501  f :     0.006352
      f+1     :     0.000134
      f-1     :     0.000945
      f+2     :     0.000854
      f-2     :     0.000317
      f+3     :     0.001738
      f-3     :     0.001863
 15 C s       :     2.859381  s :     2.859381
      pz      :     1.114469  p :     3.024159
      px      :     0.811427
      py      :     1.098263
      dz2     :     0.052445  d :     0.365443
      dxz     :     0.082806
      dyz     :     0.048885
      dx2y2   :     0.068742
      dxy     :     0.112565
      f0      :     0.005676  f :     0.053668
      f+1     :     0.007382
      f-1     :     0.003304
      f+2     :     0.009706
      f-2     :     0.003018
      f+3     :     0.012400
      f-3     :     0.012183
 16 H s       :     0.825301  s :     0.825301
      pz      :     0.013919  p :     0.061002
      px      :     0.015426
      py      :     0.031657
 17 H s       :     0.823637  s :     0.823637
      pz      :     0.034389  p :     0.062140
      px      :     0.009177
      py      :     0.018575
 18 H s       :     0.823782  s :     0.823782
      pz      :     0.026842  p :     0.062071
      px      :     0.010666
      py      :     0.024563
 19 H s       :     0.794212  s :     0.794212
      pz      :     0.013033  p :     0.058322
      px      :     0.032626
      py      :     0.012662


                      *****************************
                      * MAYER POPULATION ANALYSIS *
                      *****************************

  NA   - Mulliken gross atomic population
  ZA   - Total nuclear charge
  QA   - Mulliken gross atomic charge
  VA   - Mayer's total valence
  BVA  - Mayer's bonded valence
  FA   - Mayer's free valence

  ATOM       NA         ZA         QA         VA         BVA        FA
  0 H      0.8535     1.0000     0.1465     0.9740     0.9740     0.0000
  1 C      6.1712     6.0000    -0.1712     3.9438     3.9438    -0.0000
  2 C      6.1520     6.0000    -0.1520     3.9369     3.9369     0.0000
  3 H      0.8699     1.0000     0.1301     0.9716     0.9716    -0.0000
  4 C      6.0811     6.0000    -0.0811     3.8885     3.8885     0.0000
  5 C      6.1571     6.0000    -0.1571     3.9389     3.9389     0.0000
  6 H      0.8707     1.0000     0.1293     0.9717     0.9717    -0.0000
  7 C      6.1682     6.0000    -0.1682     3.9433     3.9433    -0.0000
  8 H      0.8574     1.0000     0.1426     0.9748     0.9748     0.0000
  9 C      6.0035     6.0000    -0.0035     3.7656     3.7656    -0.0000
 10 C      5.9116     6.0000     0.0884     3.8963     3.8963     0.0000
 11 C      5.9430     6.0000     0.0570     3.8438     3.8438     0.0000
 12 C      5.7193     6.0000     0.2807     4.3987     4.3987    -0.0000
 13 O      8.2481     8.0000    -0.2481     2.1113     2.1113    -0.0000
 14 O      8.3330     8.0000    -0.3330     2.1678     2.1678    -0.0000
 15 C      6.1990     6.0000    -0.1990     3.8701     3.8701     0.0000
 16 H      0.8658     1.0000     0.1342     0.9681     0.9681    -0.0000
 17 H      0.8632     1.0000     0.1368     0.9697     0.9697     0.0000
 18 H      0.8635     1.0000     0.1365     0.9694     0.9694     0.0000
 19 H      0.8686     1.0000     0.1314     0.9677     0.9677     0.0000

  Mayer bond orders larger than 0.100000
B(  0-H ,  1-C ) :   0.9757 B(  1-C ,  2-C ) :   1.4456 B(  1-C ,  9-C ) :   1.3780 
B(  2-C ,  3-H ) :   0.9821 B(  2-C ,  4-C ) :   1.3920 B(  4-C ,  5-C ) :   1.3918 
B(  4-C , 19-H ) :   0.9787 B(  5-C ,  6-H ) :   0.9825 B(  5-C ,  7-C ) :   1.4457 
B(  7-C ,  8-H ) :   0.9773 B(  7-C ,  9-C ) :   1.3752 B(  9-C , 10-C ) :   1.0714 
B(  9-C , 11-C ) :  -0.1470 B( 10-C , 11-C ) :   2.9012 B( 11-C , 12-C ) :   1.0390 
B( 12-C , 13-O ) :   1.2483 B( 12-C , 14-O ) :   2.0277 B( 13-O , 15-C ) :   0.8962 
B( 15-C , 16-H ) :   0.9686 B( 15-C , 17-H ) :   0.9779 B( 15-C , 18-H ) :   0.9780 


-------
TIMINGS
-------

Total SCF time: 0 days 0 hours 0 min 13 sec 

Total time                  ....      13.098 sec
Sum of individual times     ....      11.427 sec  ( 87.2%)

Fock matrix formation       ....       7.815 sec  ( 59.7%)
  Split-RI-J                ....       0.973 sec  ( 12.5% of F)
  Chain of spheres X        ....       5.045 sec  ( 64.6% of F)
  COS-X 1 center corr.      ....       0.000 sec  (  0.0% of F)
  XC integration            ....       1.554 sec  ( 19.9% of F)
    Basis function eval.    ....       0.063 sec  (  4.0% of XC)
    Density eval.           ....       0.064 sec  (  4.1% of XC)
    XC-Functional eval.     ....       0.044 sec  (  2.8% of XC)
    XC-Potential eval.      ....       0.096 sec  (  6.2% of XC)
Diagonalization             ....       0.047 sec  (  0.4%)
Density matrix formation    ....       0.044 sec  (  0.3%)
Population analysis         ....       0.111 sec  (  0.8%)
Initial guess               ....       0.092 sec  (  0.7%)
Orbital Transformation      ....       0.000 sec  (  0.0%)
Orbital Orthonormalization  ....       0.061 sec  (  0.5%)
DIIS solution               ....       0.010 sec  (  0.1%)
SOSCF solution              ....       0.064 sec  (  0.5%)
Grid generation             ....       3.244 sec  ( 24.8%)


-------------------------------------------------------------------------------
                          DFT DISPERSION CORRECTION                            
                                                                               
                              DFTD3 V3.1  Rev 1                                
                              USING zero damping                               
-------------------------------------------------------------------------------
The omegaB97X-D3 functional is recognized. Fit by Chai et al.
Active option DFTDOPT                   ...         3   

molecular C6(AA) [au] = 5030.255297 


            DFT-D V3
 parameters
 s6 scaling factor         :     1.0000 
 rs6 scaling factor        :     1.2810 
 s8 scaling factor         :     1.0000 
 rs8 scaling factor        :     1.0940 
 Damping factor alpha6     :    14.0000 
 Damping factor alpha8     :    16.0000 
 ad hoc parameters k1-k3   :    16.0000     1.3333    -4.0000 

 Edisp/kcal,au: -3.090783113195  -0.004925475887 
 E6   /kcal   :  -1.309761944 
 E8   /kcal   :  -1.781021169 
 % E8         :  57.623621710 

-------------------------   ----------------
Dispersion correction           -0.004925476
-------------------------   ----------------


-------------------------   --------------------
FINAL SINGLE POINT ENERGY      -536.311630287930
-------------------------   --------------------


                            ***************************************
                            *     ORCA property calculations      *
                            ***************************************

                                    ---------------------
                                    Active property flags
                                    ---------------------
   (+) Dipole Moment


------------------------------------------------------------------------------
                       ORCA ELECTRIC PROPERTIES CALCULATION
------------------------------------------------------------------------------

Dipole Moment Calculation                       ... on
Quadrupole Moment Calculation                   ... off
Polarizability Calculation                      ... off
GBWName                                         ... orca.gbw
Electron density file                           ... orca.scfp
The origin for moment calculation is the CENTER OF MASS  = ( 3.728086,  1.724775  4.169283)

-------------
DIPOLE MOMENT
-------------
                                X             Y             Z
Electronic contribution:      0.19770       1.92918       0.27986
Nuclear contribution   :     -0.66378      -2.79850      -0.43321
                        -----------------------------------------
Total Dipole Moment    :     -0.46608      -0.86932      -0.15335
                        -----------------------------------------
Magnitude (a.u.)       :      0.99823
Magnitude (Debye)      :      2.53729



--------------------
Rotational spectrum 
--------------------
 
Rotational constants in cm-1:     0.115775     0.011366     0.010370 
Rotational constants in MHz :  3470.840132   340.747136   310.899335 

 Dipole components along the rotational axes: 
x,y,z [a.u.] :     0.655867     0.752450    -0.010726 
x,y,z [Debye]:     1.667082     1.912577    -0.027263 

 


           ************************************************************
           *        Program running with 36 parallel MPI-processes    *
           *              working on a common directory               *
           ************************************************************

-------------------------------------------------------------------------------
                               ORCA SCF HESSIAN
-------------------------------------------------------------------------------

Hessian of the Kohn-Sham DFT energy:
Kohn-Sham wavefunction type                      ... RKS
Hartree-Fock exchange scaling                    ...    0.196
Number of operators                              ...    1
Number of atoms                                  ...   20
Basis set dimensions                             ...  420
Integral neglect threshold                       ... 2.5e-11
Integral primitive cutoff                        ... 2.5e-12

Setting up DFT Hessian calculations              ... 
Electron density on the grid                     ... found on disk
Electron density on the final grid               ... found on disk
Building xc-kernel on the grid                   ... done   (      0.3 sec)
Building xc-kernel on the final grid             ... done   (      0.6 sec)
                                                     done   (      2.0 sec)

Nuclear repulsion Hessian                        ... done   (      0.0 sec)

----------------------------------------------
Forming right-hand sides of CP-SCF equations     ...
----------------------------------------------
One electron integral derivatives                ... done   (      0.2 sec)
Transforming the overlap derivative matrices     ... done   (      0.0 sec)
Making the Q(x) pseudodensities                  ... done   (      0.1 sec)
Adding the E*S(x)*S(y) terms to the Hessian      ... done   (      0.2 sec)
Calculating energy weighted overlap derivatives  ... done   (      0.1 sec)
Two electron integral derivatives (RI)           ... done   (     21.7 sec)
Exchange-correlation integral derivatives        ... done   (     10.4 sec)
tr(F(y)Q(x)) contribution to the Hessian         ... done   (      0.0 sec)
[...]
     19       0.132150  -0.165365  -0.000727  -0.000524   0.000366  -0.000004
     20       0.036225  -0.007509  -0.000325  -0.000214   0.000065   0.000031
     21      -0.046043   0.269016   0.007262   0.006143   0.000015   0.000001
     22      -0.211330   0.172791   0.010829   0.005237   0.000009  -0.000007
     23      -0.037390   0.046551   0.002202   0.001221   0.000003   0.000041
     24       0.267460  -0.195542  -0.011433   0.000519   0.000045  -0.000014
     25       0.096267  -0.333540  -0.005840  -0.004166   0.000111   0.000008
     26       0.034347  -0.068187  -0.001781  -0.000783   0.000022   0.000049
     27      -0.088618  -0.211913  -0.037569   0.099871   0.000006  -0.000000
     28       0.280651  -0.066727  -0.015575   0.028902  -0.000010  -0.000002
     29       0.039291  -0.025135  -0.004956   0.011050  -0.000001   0.000019
     30       0.005891   0.015912   0.069971  -0.670894   0.000311  -0.000003
     31      -0.016839   0.004873   0.020304  -0.194648   0.000096  -0.000005
     32      -0.002359   0.001704   0.007831  -0.075462   0.000037   0.000048
     33      -0.000183   0.035275   0.011977   0.665055  -0.000548   0.000010
     34       0.002704   0.009715   0.021265   0.195571  -0.000021   0.000025
     35       0.000450   0.003897   0.003552   0.074781  -0.000041  -0.000161
     36      -0.001781  -0.009361  -0.230744  -0.087142   0.001599  -0.000009
     37      -0.000321   0.018193  -0.751046  -0.031546  -0.002348  -0.000047
     38      -0.000130   0.001832  -0.119357  -0.010104  -0.000200   0.000227
     39      -0.000063   0.001104  -0.015318  -0.008567  -0.002343  -0.000046
     40      -0.000073  -0.002423   0.063481   0.004551   0.000379  -0.000065
     41      -0.000016  -0.000214   0.007389   0.000015  -0.000126   0.000511
     42       0.000610  -0.003680   0.139969  -0.001522   0.000236  -0.000005
     43       0.001197  -0.013864   0.489414  -0.003088   0.000892  -0.000018
     44       0.000214  -0.002180   0.077338  -0.000542   0.000142   0.000193
     45       0.000091   0.002567  -0.024093   0.003923  -0.039145   0.006828
     46       0.000019   0.000394  -0.013713  -0.000383  -0.022688   0.012140
     47       0.000015   0.000285  -0.003916   0.000244  -0.005362  -0.094253
     48      -0.000382  -0.009169   0.193697   0.006576   0.231263   0.004015
     49      -0.000318  -0.006927   0.108913  -0.005574  -0.385538  -0.002472
     50      -0.000080  -0.001630   0.030825  -0.000185  -0.031124  -0.016981
     51      -0.000195  -0.009097   0.120828  -0.003762   0.085782   0.095507
     52       0.000003   0.001626  -0.069177  -0.000780   0.264030   0.313510
     53       0.000063   0.002377  -0.024050   0.005944   0.561569   0.626026
     54      -0.000162  -0.008573   0.115696  -0.002850   0.165508  -0.180242
     55       0.000021   0.002196  -0.072948   0.000876   0.399182  -0.454183
     56      -0.000075  -0.003230   0.024412  -0.006470  -0.464379   0.502517
     57      -0.142436   0.163533   0.000945   0.001547   0.000132   0.000017
     58       0.481366   0.037925   0.000634   0.000428   0.000020   0.000010
     59       0.068551   0.017594   0.000197   0.000164   0.000012  -0.000059
                 54         55         56         57         58         59    
      0      -0.000178  -0.044474   0.088955   0.118672   0.140200  -0.102641
      1      -0.000446  -0.188344   0.373000   0.493757   0.566683  -0.413299
      2      -0.000084  -0.033460   0.066334   0.087867   0.101129  -0.073770
      3      -0.000013   0.002553  -0.006199  -0.009296  -0.014000   0.010638
      4       0.000039   0.016026  -0.032312  -0.043601  -0.050445   0.037346
      5       0.000005   0.002756  -0.005635  -0.007673  -0.009108   0.006766
      6       0.000075   0.030903  -0.036546  -0.010913   0.027736  -0.030572
      7      -0.000109  -0.027440   0.035735   0.015622  -0.022938   0.028844
      8      -0.000012  -0.002312   0.003267   0.001778  -0.001801   0.002564
      9      -0.001058  -0.355020   0.426314   0.149336  -0.289348   0.331583
     10       0.000937   0.332324  -0.402612  -0.146806   0.268920  -0.312590
     11       0.000079   0.029437  -0.035935  -0.013542   0.023676  -0.027852
     12      -0.000071  -0.054097   0.001149  -0.052486  -0.000224  -0.037175
     13      -0.000058  -0.015582  -0.003187  -0.015114   0.003339  -0.010645
     14      -0.000014  -0.006102  -0.000435  -0.005927   0.000517  -0.004193
     15       0.000059   0.010575   0.010598  -0.000440  -0.010126  -0.009779
     16       0.000121   0.039527   0.049272  -0.018935  -0.032669  -0.041380
     17       0.000024   0.007089   0.008660  -0.003070  -0.005962  -0.007341
     18      -0.000313  -0.111897  -0.131713   0.043150   0.088741   0.105570
     19      -0.001603  -0.468471  -0.562864   0.203023   0.365025   0.448806
     20      -0.000279  -0.083126  -0.099691   0.035646   0.064886   0.079516
     21       0.000035   0.011216   0.023303  -0.031921   0.039244   0.031022
     22      -0.000013  -0.012176  -0.023810   0.031354  -0.034237  -0.026691
     23       0.000000  -0.001202  -0.002259   0.002890  -0.002853  -0.002197
     24      -0.000129  -0.144103  -0.283905   0.373006  -0.427418  -0.330568
     25       0.000163   0.135485   0.265820  -0.348034   0.393723   0.303933
     26       0.000019   0.012120   0.023685  -0.030911   0.034585   0.026654
     27      -0.000009   0.000889  -0.000454  -0.002266  -0.001167   0.002292
     28       0.000004   0.000253   0.001560  -0.000628   0.003835   0.000713
     29       0.000000   0.000101   0.000223  -0.000255   0.000537   0.000272
     30      -0.000061  -0.000090   0.000045   0.000251   0.000089  -0.000089
     31       0.000021  -0.000026  -0.000149   0.000068  -0.000286  -0.000028
     32      -0.000001  -0.000011  -0.000021   0.000028  -0.000043  -0.000010
     33       0.000059  -0.000005  -0.000013   0.000252  -0.000022  -0.000370
     34       0.000167  -0.000002   0.000032   0.000072   0.000076  -0.000103
     35       0.000027  -0.000001   0.000005   0.000028   0.000010  -0.000039
     36      -0.001022  -0.000083   0.000002   0.000026  -0.000002   0.000224
     37      -0.000763  -0.000020  -0.000010  -0.000004  -0.000002   0.000066
     38      -0.000170  -0.000009  -0.000002   0.000001  -0.000001   0.000027
     39      -0.000211   0.000025   0.000000   0.000031  -0.000026  -0.000046
     40       0.000465  -0.000010   0.000002   0.000009   0.000008   0.000020
     41       0.000040   0.000002  -0.000001   0.000005  -0.000001  -0.000005
     42       0.000257   0.000017  -0.000000   0.000037   0.000020  -0.000034
     43       0.000502   0.000018   0.000004   0.000015   0.000025  -0.000048
     44       0.000088   0.000002   0.000001   0.000003   0.000005  -0.000002
     45       0.028398  -0.000091  -0.000000   0.000065  -0.000006   0.000072
     46      -0.090285   0.000200   0.000006  -0.000016  -0.000039  -0.000040
     47      -0.009597   0.000022  -0.000001   0.000003  -0.000005  -0.000002
     48      -0.456106   0.001134   0.000021  -0.000162  -0.000131  -0.000422
     49       0.765773  -0.001876  -0.000025   0.000339   0.000140   0.000679
     50       0.062325  -0.000148  -0.000005   0.000032   0.000008   0.000044
     51       0.045158  -0.000062   0.000004   0.000034   0.000009  -0.000037
     52       0.119347  -0.000205   0.000004   0.000002   0.000004  -0.000067
     53       0.285202  -0.000522   0.000000   0.000007   0.000070  -0.000076
     54       0.083750  -0.000126   0.000004   0.000030   0.000019  -0.000042
     55       0.183077  -0.000311   0.000007  -0.000011   0.000020  -0.000055
     56      -0.233372   0.000420  -0.000004   0.000014  -0.000063   0.000027
     57       0.001048   0.632809  -0.002980   0.586590  -0.006748   0.399830
     58       0.000250   0.182194   0.003234   0.168893  -0.005898   0.115042
     59       0.000111   0.071279   0.000335   0.066092  -0.001408   0.045043


-----------
IR SPECTRUM
-----------

 Mode    freq (cm**-1)   T**2         TX         TY         TZ
-------------------------------------------------------------------
   6:        24.74    1.659272  ( -0.152847  -0.380658   1.221069)
   7:        51.99    1.512374  ( -0.443209  -1.062836  -0.431647)
   8:        61.69    0.780774  (  0.068280   0.125742  -0.871952)
   9:       132.10    0.666330  ( -0.132681  -0.057188   0.803402)
  10:       150.68    0.359174  ( -0.018971  -0.300441   0.518217)
  11:       163.04    1.268129  (  0.352565   1.039873   0.249980)
  12:       243.88    1.827099  (  0.092347   0.195815  -1.334252)
  13:       292.46    0.212715  (  0.316711  -0.331652  -0.049151)
  14:       321.14   17.836845  (  4.015888  -1.302917   0.109078)
  15:       405.23    1.992256  ( -0.064930  -0.222034   1.392387)
  16:       415.59    0.002349  (  0.015331   0.009003   0.045087)
  17:       510.18    3.398896  (  1.686125  -0.743904  -0.049868)
  18:       573.99    7.514765  ( -0.138124  -0.456076   2.699571)
  19:       598.34    0.524498  (  0.724050  -0.002203  -0.015649)
  20:       623.73   10.688677  ( -3.183550  -0.665606  -0.332646)
  21:       645.23    1.071984  ( -0.993612  -0.256243  -0.138054)
  22:       716.17   39.727206  ( -0.420165  -0.998635   6.209138)
  23:       784.08   28.718930  ( -0.315881  -0.726443   5.300135)
  24:       790.88    3.999235  (  1.549358   1.264167   0.024635)
  25:       795.21   32.715534  (  0.363793   0.898737  -5.636973)
  26:       877.50    0.000316  (  0.007917  -0.003115   0.015608)
  27:       918.98   15.741885  (  1.344861   3.685957   0.589027)
  28:       966.47    3.049161  ( -0.183341  -0.285355   1.712927)
  29:      1009.06    0.013101  ( -0.019687  -0.048454  -0.101810)
  30:      1024.74    0.055085  ( -0.038094  -0.054843   0.225003)
  31:      1031.46    1.634815  ( -1.239750  -0.286832  -0.124745)
  32:      1057.94   13.049137  ( -3.370179  -1.226098  -0.433256)
  33:      1071.61    0.049221  (  0.007694  -0.215379  -0.052670)
  34:      1116.82    5.144066  (  0.628590  -2.155871  -0.318060)
  35:      1182.47    0.973484  ( -0.025460  -0.150737   0.974738)
  36:      1186.37    0.378663  ( -0.141185   0.592974   0.084331)
  37:      1206.98   41.526084  (  6.418051   0.268663   0.512368)
  38:      1214.35   20.627563  (  4.491288   0.545331   0.398135)
  39:      1252.91  363.055940  ( 18.772576  -3.122571   0.946515)
  40:      1328.54    1.441407  (  0.809689   0.862830   0.203306)
  41:      1346.20  501.826207  (-22.134365   3.254399  -1.142359)
  42:      1362.33    1.061881  ( -0.282230  -0.974102  -0.182627)
  43:      1481.48   45.530168  ( -6.717396  -0.614886  -0.169321)
  44:      1490.41   10.348141  (  0.367500  -0.023199   3.195708)
  45:      1499.17    7.158048  (  0.558855  -2.585973  -0.398088)
  46:      1501.56   10.521878  ( -2.029929   2.524244  -0.171637)
  47:      1552.95   33.692189  (  5.764071   0.469062   0.497655)
  48:      1665.08    0.715734  ( -0.278780   0.791444   0.107856)
  49:      1695.12    0.513834  ( -0.338318   0.628701   0.064107)
  50:      1817.02  379.711747  ( -6.590362 -18.105515  -2.910190)
  51:      2379.85  314.912196  (-16.958978  -4.870249  -1.893658)
  52:      3078.47   33.725068  ( -5.771211  -0.463664  -0.450781)
  53:      3158.83   16.289913  (  0.284651   0.535107  -3.990307)
  54:      3193.60   12.476826  (  1.976645  -2.918021  -0.234212)
  55:      3201.86    0.115399  (  0.327347   0.084155   0.034077)
  56:      3211.48    2.661034  ( -0.416143   1.561400   0.223356)
  57:      3219.71    8.839120  ( -2.858348  -0.750467  -0.325217)
  58:      3227.73    9.917991  (  0.999047  -2.958227  -0.410841)
  59:      3232.34    6.218362  ( -2.341838  -0.805743  -0.291432)

The first frequency considered to be a vibration is 6
The total number of vibrations considered is 54


--------------------------
THERMOCHEMISTRY AT 298.15K
--------------------------

Temperature         ... 298.15 K
Pressure            ... 1.00 atm
Total Mass          ... 160.17 AMU

Throughout the following assumptions are being made:
  (1) The electronic state is orbitally nondegenerate
  (2) There are no thermally accessible electronically excited states
  (3) Hindered rotations indicated by low frequency modes are not
      treated as such but are treated as vibrations and this may
      cause some error
  (4) All equations used are the standard statistical mechanics
      equations for an ideal gas
  (5) All vibrations are strictly harmonic

freq.      24.74  E(vib)   ...       0.56 
freq.      51.99  E(vib)   ...       0.52 
freq.      61.69  E(vib)   ...       0.51 
freq.     132.10  E(vib)   ...       0.42 
freq.     150.68  E(vib)   ...       0.40 
freq.     163.04  E(vib)   ...       0.39 
freq.     243.88  E(vib)   ...       0.31 
freq.     292.46  E(vib)   ...       0.27 
freq.     321.14  E(vib)   ...       0.25 
freq.     405.23  E(vib)   ...       0.19 
freq.     415.59  E(vib)   ...       0.18 
freq.     510.18  E(vib)   ...       0.14 
freq.     573.99  E(vib)   ...       0.11 
freq.     598.34  E(vib)   ...       0.10 
freq.     623.73  E(vib)   ...       0.09 
freq.     645.23  E(vib)   ...       0.09 
freq.     716.17  E(vib)   ...       0.07 
freq.     784.08  E(vib)   ...       0.05 
freq.     790.88  E(vib)   ...       0.05 
freq.     795.21  E(vib)   ...       0.05 
freq.     877.50  E(vib)   ...       0.04 
freq.     918.98  E(vib)   ...       0.03 
freq.     966.47  E(vib)   ...       0.03 
freq.    1009.06  E(vib)   ...       0.02 
freq.    1024.74  E(vib)   ...       0.02 
freq.    1031.46  E(vib)   ...       0.02 
freq.    1057.94  E(vib)   ...       0.02 
freq.    1071.61  E(vib)   ...       0.02 
freq.    1116.82  E(vib)   ...       0.01 
freq.    1182.47  E(vib)   ...       0.01 
freq.    1186.37  E(vib)   ...       0.01 
freq.    1206.98  E(vib)   ...       0.01 
freq.    1214.35  E(vib)   ...       0.01 
freq.    1252.91  E(vib)   ...       0.01 
freq.    1328.54  E(vib)   ...       0.01 
freq.    1346.20  E(vib)   ...       0.01 
freq.    1362.33  E(vib)   ...       0.01 
freq.    1481.48  E(vib)   ...       0.00 
freq.    1490.41  E(vib)   ...       0.00 
freq.    1499.17  E(vib)   ...       0.00 
freq.    1501.56  E(vib)   ...       0.00 
freq.    1552.95  E(vib)   ...       0.00 
freq.    1665.08  E(vib)   ...       0.00 
freq.    1695.12  E(vib)   ...       0.00 
freq.    1817.02  E(vib)   ...       0.00 
freq.    2379.85  E(vib)   ...       0.00 
freq.    3078.47  E(vib)   ...       0.00 
freq.    3158.83  E(vib)   ...       0.00 
freq.    3193.60  E(vib)   ...       0.00 
freq.    3201.86  E(vib)   ...       0.00 
freq.    3211.48  E(vib)   ...       0.00 
freq.    3219.71  E(vib)   ...       0.00 
freq.    3227.73  E(vib)   ...       0.00 
freq.    3232.34  E(vib)   ...       0.00 

------------
INNER ENERGY
------------

The inner energy is: U= E(el) + E(ZPE) + E(vib) + E(rot) + E(trans)
    E(el)   - is the total energy from the electronic structure calculation
              = E(kin-el) + E(nuc-el) + E(el-el) + E(nuc-nuc)
    E(ZPE)  - the the zero temperature vibrational energy from the frequency calculation
    E(vib)  - the the finite temperature correction to E(ZPE) due to population
              of excited vibrational states
    E(rot)  - is the rotational thermal energy
    E(trans)- is the translational thermal energy

Summary of contributions to the inner energy U:
Electronic energy                ...   -536.31163029 Eh
Zero point energy                ...      0.15505609 Eh      97.30 kcal/mol
Thermal vibrational correction   ...      0.00804623 Eh       5.05 kcal/mol
Thermal rotational correction    ...      0.00141627 Eh       0.89 kcal/mol
Thermal translational correction ...      0.00141627 Eh       0.89 kcal/mol
-----------------------------------------------------------------------
Total thermal energy                   -536.14569543 Eh


Summary of corrections to the electronic energy:
(perhaps to be used in another calculation)
Total thermal correction                  0.01087877 Eh       6.83 kcal/mol
Non-thermal (ZPE) correction              0.15505609 Eh      97.30 kcal/mol
-----------------------------------------------------------------------
Total correction                          0.16593486 Eh     104.13 kcal/mol


--------
ENTHALPY
--------

The enthalpy is H = U + kB*T
                kB is Boltzmann's constant
Total free energy                 ...   -536.14569543 Eh 
Thermal Enthalpy correction       ...      0.00094421 Eh       0.59 kcal/mol
-----------------------------------------------------------------------
Total Enthalpy                    ...   -536.14475122 Eh


Note: Only C1 symmetry has been detected, increase convergence thresholds 
      if your molecule has a higher symmetry. Symmetry factor of 1.0 is   
      used for the rotational entropy correction. 
 

Note: Rotational entropy computed according to Herzberg 
Infrared and Raman Spectra, Chapter V,1, Van Nostrand Reinhold, 1945 
Point Group:  C1, Symmetry Number:   1  
Rotational constants in cm-1:     0.115775     0.011366     0.010370 

Vibrational entropy computed according to the QRRHO of S. Grimme
Chem.Eur.J. 2012 18 9955


-------
ENTROPY
-------

The entropy contributions are T*S = T*(S(el)+S(vib)+S(rot)+S(trans))
     S(el)   - electronic entropy
     S(vib)  - vibrational entropy
     S(rot)  - rotational entropy
     S(trans)- translational entropy
The entropies will be listed as mutliplied by the temperature to get
units of energy

Electronic entropy                ...      0.00000000 Eh      0.00 kcal/mol
Vibrational entropy               ...      0.01433560 Eh      9.00 kcal/mol
Rotational entropy                ...      0.01479918 Eh      9.29 kcal/mol
Translational entropy             ...      0.01953842 Eh     12.26 kcal/mol
-----------------------------------------------------------------------
Final entropy term                ...      0.04867319 Eh     30.54 kcal/mol

In case the symmetry of your molecule has not been determined correctly
or in case you have a reason to use a different symmetry number we print 
out the resulting rotational entropy values for sn=1,12 :
 --------------------------------------------------------
|  sn= 1 | S(rot)=       0.01479918 Eh      9.29 kcal/mol|
|  sn= 2 | S(rot)=       0.01414472 Eh      8.88 kcal/mol|
|  sn= 3 | S(rot)=       0.01376189 Eh      8.64 kcal/mol|
|  sn= 4 | S(rot)=       0.01349026 Eh      8.47 kcal/mol|
|  sn= 5 | S(rot)=       0.01327958 Eh      8.33 kcal/mol|
|  sn= 6 | S(rot)=       0.01310743 Eh      8.23 kcal/mol|
|  sn= 7 | S(rot)=       0.01296189 Eh      8.13 kcal/mol|
|  sn= 8 | S(rot)=       0.01283581 Eh      8.05 kcal/mol|
|  sn= 9 | S(rot)=       0.01272460 Eh      7.98 kcal/mol|
|  sn=10 | S(rot)=       0.01262512 Eh      7.92 kcal/mol|
|  sn=11 | S(rot)=       0.01253513 Eh      7.87 kcal/mol|
|  sn=12 | S(rot)=       0.01245298 Eh      7.81 kcal/mol|
 --------------------------------------------------------


-------------------
GIBBS FREE ENERGY
-------------------

The Gibbs free energy is G = H - T*S

Total enthalpy                    ...   -536.14475122 Eh 
Total entropy correction          ...     -0.04867319 Eh    -30.54 kcal/mol
-----------------------------------------------------------------------
Final Gibbs free energy         ...   -536.19342441 Eh

For completeness - the Gibbs free energy minus the electronic energy
G-E(el)                           ...      0.11820587 Eh     74.18 kcal/mol


Timings for individual modules:

Sum of individual times         ...      471.342 sec (=   7.856 min)
GTO integral calculation        ...        2.315 sec (=   0.039 min)   0.5 %
SCF iterations                  ...       14.666 sec (=   0.244 min)   3.1 %
Analytical frequency calculation...      454.360 sec (=   7.573 min)  96.4 %
                             ****ORCA TERMINATED NORMALLY****
TOTAL RUN TIME: 0 days 0 hours 7 minutes 55 seconds 111 msec
