
                                 *****************
                                 * O   R   C   A *
                                 *****************

                                            #,                                       
                                            ###                                      
                                            ####                                     
                                            #####                                    
                                            ######                                   
                                           ########,                                 
                                     ,,################,,,,,                         
                               ,,#################################,,                 
                          ,,##########################################,,             
                       ,#########################################, ''#####,          
                    ,#############################################,,   '####,        
                  ,##################################################,,,,####,       
                ,###########''''           ''''###############################       
              ,#####''   ,,,,##########,,,,          '''####'''          '####       
            ,##' ,,,,###########################,,,                        '##       
           ' ,,###''''                  '''############,,,                           
         ,,##''                                '''############,,,,        ,,,,,,###''
      ,#''                                            '''#######################'''  
     '                                                          ''''####''''         
             ,#######,   #######,   ,#######,      ##                                
            ,#'     '#,  ##    ##  ,#'     '#,    #''#        ######   ,####,        
            ##       ##  ##   ,#'  ##            #'  '#       #        #'  '#        
            ##       ##  #######   ##           ,######,      #####,   #    #        
            '#,     ,#'  ##    ##  '#,     ,#' ,#      #,         ##   #,  ,#        
             '#######'   ##     ##  '#######'  #'      '#     #####' # '####'        



                  #######################################################
                  #                        -***-                        #
                  #          Department of theory and spectroscopy      #
                  #    Directorship and core code : Frank Neese         #
                  #        Max Planck Institute fuer Kohlenforschung    #
                  #                Kaiser Wilhelm Platz 1               #
                  #                 D-45470 Muelheim/Ruhr               #
                  #                      Germany                        #
                  #                                                     #
                  #                  All rights reserved                #
                  #                        -***-                        #
                  #######################################################


                         Program Version 5.0.2 -  RELEASE  -


 With contributions from (in alphabetic order):
   Daniel Aravena         : Magnetic Suceptibility
   Michael Atanasov       : Ab Initio Ligand Field Theory (pilot matlab implementation)
   Alexander A. Auer      : GIAO ZORA, VPT2 properties, NMR spectrum
   Ute Becker             : Parallelization
   Giovanni Bistoni       : ED, misc. LED, open-shell LED, HFLD
   Martin Brehm           : Molecular dynamics
   Dmytro Bykov           : SCF Hessian
   Vijay G. Chilkuri      : MRCI spin determinant printing, contributions to CSF-ICE
   Dipayan Datta          : RHF DLPNO-CCSD density
   Achintya Kumar Dutta   : EOM-CC, STEOM-CC
   Dmitry Ganyushin       : Spin-Orbit,Spin-Spin,Magnetic field MRCI
   Miquel Garcia          : C-PCM and meta-GGA Hessian, CC/C-PCM, Gaussian charge scheme
   Yang Guo               : DLPNO-NEVPT2, F12-NEVPT2, CIM, IAO-localization
   Andreas Hansen         : Spin unrestricted coupled pair/coupled cluster methods
   Benjamin Helmich-Paris : MC-RPA, TRAH-SCF, COSX integrals
   Lee Huntington         : MR-EOM, pCC
   Robert Izsak           : Overlap fitted RIJCOSX, COSX-SCS-MP3, EOM
   Marcus Kettner         : VPT2
   Christian Kollmar      : KDIIS, OOCD, Brueckner-CCSD(T), CCSD density, CASPT2, CASPT2-K
   Simone Kossmann        : Meta GGA functionals, TD-DFT gradient, OOMP2, MP2 Hessian
   Martin Krupicka        : Initial AUTO-CI
   Lucas Lang             : DCDCAS
   Marvin Lechner         : AUTO-CI (C++ implementation), FIC-MRCC
   Dagmar Lenk            : GEPOL surface, SMD
   Dimitrios Liakos       : Extrapolation schemes; Compound Job, initial MDCI parallelization
   Dimitrios Manganas     : Further ROCIS development; embedding schemes
   Dimitrios Pantazis     : SARC Basis sets
   Anastasios Papadopoulos: AUTO-CI, single reference methods and gradients
   Taras Petrenko         : DFT Hessian,TD-DFT gradient, ASA, ECA, R-Raman, ABS, FL, XAS/XES, NRVS
   Peter Pinski           : DLPNO-MP2, DLPNO-MP2 Gradient
   Christoph Reimann      : Effective Core Potentials
   Marius Retegan         : Local ZFS, SOC
   Christoph Riplinger    : Optimizer, TS searches, QM/MM, DLPNO-CCSD(T), (RO)-DLPNO pert. Triples
   Tobias Risthaus        : Range-separated hybrids, TD-DFT gradient, RPA, STAB
   Michael Roemelt        : Original ROCIS implementation
   Masaaki Saitow         : Open-shell DLPNO-CCSD energy and density
   Barbara Sandhoefer     : DKH picture change effects
   Avijit Sen             : IP-ROCIS
   Kantharuban Sivalingam : CASSCF convergence, NEVPT2, FIC-MRCI
   Bernardo de Souza      : ESD, SOC TD-DFT
   Georgi Stoychev        : AutoAux, RI-MP2 NMR, DLPNO-MP2 response
   Willem Van den Heuvel  : Paramagnetic NMR
   Boris Wezisla          : Elementary symmetry handling
   Frank Wennmohs         : Technical directorship


 We gratefully acknowledge several colleagues who have allowed us to
 interface, adapt or use parts of their codes:
   Stefan Grimme, W. Hujo, H. Kruse, P. Pracht,  : VdW corrections, initial TS optimization,
                  C. Bannwarth, S. Ehlert          DFT functionals, gCP, sTDA/sTD-DF
   Ed Valeev, F. Pavosevic, A. Kumar             : LibInt (2-el integral package), F12 methods
   Garnet Chan, S. Sharma, J. Yang, R. Olivares  : DMRG
   Ulf Ekstrom                                   : XCFun DFT Library
   Mihaly Kallay                                 : mrcc  (arbitrary order and MRCC methods)
   Jiri Pittner, Ondrej Demel                    : Mk-CCSD
   Frank Weinhold                                : gennbo (NPA and NBO analysis)
   Christopher J. Cramer and Donald G. Truhlar   : smd solvation model
   Lars Goerigk                                  : TD-DFT with DH, B97 family of functionals
   V. Asgeirsson, H. Jonsson                     : NEB implementation
   FAccTs GmbH                                   : IRC, NEB, NEB-TS, DLPNO-Multilevel, CI-OPT
                                                   MM, QMMM, 2- and 3-layer-ONIOM, Crystal-QMMM,
                                                   LR-CPCM, SF, NACMEs, symmetry and pop. for TD-DFT,
                                                   nearIR, NL-DFT gradient (VV10), updates on ESD,
                                                   ML-optimized integration grids
   S Lehtola, MJT Oliveira, MAL Marques          : LibXC Library
   Liviu Ungur et al                             : ANISO software


 Your calculation uses the libint2 library for the computation of 2-el integrals
 For citations please refer to: http://libint.valeyev.net

 Your ORCA version has been built with support for libXC version: 5.1.0
 For citations please refer to: https://tddft.org/programs/libxc/

 This ORCA versions uses:
   CBLAS   interface :  Fast vector & matrix operations
   LAPACKE interface :  Fast linear algebra routines
   SCALAPACK package :  Parallel linear algebra routines
   Shared memory     :  Shared parallel matrices
   BLAS/LAPACK       :  OpenBLAS 0.3.15  USE64BITINT DYNAMIC_ARCH NO_AFFINITY Haswell SINGLE_THREADED
        Core in use  :  Haswell
   Copyright (c) 2011-2014, The OpenBLAS Project




***************************************
The coordinates will be read from file: 01_tpss_opt.xyz
***************************************


================================================================================

----- Orbital basis set information -----
Your calculation utilizes the basis: def2-SVP
   F. Weigend and R. Ahlrichs, Phys. Chem. Chem. Phys. 7, 3297 (2005).

----- AuxJ basis set information -----
Your calculation utilizes the auxiliary basis: def2/J
   F. Weigend, Phys. Chem. Chem. Phys. 8, 1057 (2006).

================================================================================
                                        WARNINGS
                       Please study these warnings very carefully!
================================================================================


INFO   : the flag for use of the SHARK integral package has been found!

================================================================================
                                       INPUT FILE
================================================================================
NAME = 02_tpss_freq.inp
|  1> ! tpss def2-svp freq
|  2> 
|  3> *xyzfile 0 1 01_tpss_opt.xyz
|  4> 
|  5>                          ****END OF INPUT****
================================================================================

                       ****************************
                       * Single Point Calculation *
                       ****************************

---------------------------------
CARTESIAN COORDINATES (ANGSTROEM)
---------------------------------
  S      0.025584    0.709661    1.105227
  C      1.372897    0.024156    0.033505
  C     -1.378542    0.060936    0.085044
  O      0.041960    2.214963    0.907706
  H      1.346960   -1.078413    0.038697
  H      2.315402    0.388483    0.470792
  H      1.245888    0.432237   -0.982594
  H     -1.381912   -1.041927    0.089746
  H     -1.278958    0.466180   -0.935241
  H     -2.293919    0.450026    0.557269

----------------------------
CARTESIAN COORDINATES (A.U.)
----------------------------
  NO LB      ZA    FRAG     MASS         X           Y           Z
   0 S    16.0000    0    32.060    0.048348    1.341064    2.088576
   1 C     6.0000    0    12.011    2.594400    0.045647    0.063315
   2 C     6.0000    0    12.011   -2.605067    0.115152    0.160710
   3 O     8.0000    0    15.999    0.079292    4.185673    1.715316
   4 H     1.0000    0     1.008    2.545385   -2.037905    0.073126
   5 H     1.0000    0     1.008    4.375476    0.734126    0.889667
   6 H     1.0000    0     1.008    2.354388    0.816810   -1.856834
   7 H     1.0000    0     1.008   -2.611435   -1.968957    0.169595
   8 H     1.0000    0     1.008   -2.416881    0.880953   -1.767349
   9 H     1.0000    0     1.008   -4.334879    0.850425    1.053086

--------------------------------
INTERNAL COORDINATES (ANGSTROEM)
--------------------------------
 S      0   0   0     0.000000000000     0.00000000     0.00000000
 C      1   0   0     1.853039957203     0.00000000     0.00000000
 C      1   2   0     1.852886540609    95.91351044     0.00000000
 O      1   2   3     1.518294147499   106.48037969   250.84997005
 H      2   1   3     1.102885732584   110.48773984   295.51168992
 H      2   1   3     1.101031028664   105.68125885   176.04398826
 H      2   1   3     1.102324938451   108.20359933    58.23643092
 H      3   1   2     1.102878197552   110.49217329    64.48716644
 H      3   1   2     1.102325470596   108.20643345   301.74861099
 H      3   1   2     1.101046074308   105.67319615   183.94849679

---------------------------
INTERNAL COORDINATES (A.U.)
---------------------------
 S      0   0   0     0.000000000000     0.00000000     0.00000000
 C      1   0   0     3.501738034327     0.00000000     0.00000000
 C      1   2   0     3.501448118980    95.91351044     0.00000000
 O      1   2   3     2.869160129508   106.48037969   250.84997005
 H      2   1   3     2.084151991593   110.48773984   295.51168992
 H      2   1   3     2.080647109124   105.68125885   176.04398826
 H      2   1   3     2.083092244264   108.20359933    58.23643092
 H      3   1   2     2.084137752447   110.49217329    64.48716644
 H      3   1   2     2.083093249872   108.20643345   301.74861099
 H      3   1   2     2.080675541271   105.67319615   183.94849679

---------------------
BASIS SET INFORMATION
---------------------
There are 4 groups of distinct atoms

 Group   1 Type S   : 10s7p1d contracted to 4s3p1d pattern {5311/511/1}
 Group   2 Type C   : 7s4p1d contracted to 3s2p1d pattern {511/31/1}
 Group   3 Type O   : 7s4p1d contracted to 3s2p1d pattern {511/31/1}
 Group   4 Type H   : 4s1p contracted to 2s1p pattern {31/1}

Atom   0S    basis set group =>   1
Atom   1C    basis set group =>   2
Atom   2C    basis set group =>   2
Atom   3O    basis set group =>   3
Atom   4H    basis set group =>   4
Atom   5H    basis set group =>   4
Atom   6H    basis set group =>   4
Atom   7H    basis set group =>   4
Atom   8H    basis set group =>   4
Atom   9H    basis set group =>   4
---------------------------------
AUXILIARY/J BASIS SET INFORMATION
---------------------------------
There are 4 groups of distinct atoms

 Group   1 Type S   : 14s5p5d2f1g contracted to 8s4p3d1f1g pattern {71111111/2111/311/2/1}
 Group   2 Type C   : 12s5p4d2f1g contracted to 6s4p3d1f1g pattern {711111/2111/211/2/1}
 Group   3 Type O   : 12s5p4d2f1g contracted to 6s4p3d1f1g pattern {711111/2111/211/2/1}
 Group   4 Type H   : 5s2p1d contracted to 3s1p1d pattern {311/2/1}

Atom   0S    basis set group =>   1
Atom   1C    basis set group =>   2
Atom   2C    basis set group =>   2
Atom   3O    basis set group =>   3
Atom   4H    basis set group =>   4
Atom   5H    basis set group =>   4
Atom   6H    basis set group =>   4
Atom   7H    basis set group =>   4
Atom   8H    basis set group =>   4
Atom   9H    basis set group =>   4
------------------------------------------------------------------------------
                           ORCA GTO INTEGRAL CALCULATION
                           -- RI-GTO INTEGRALS CHOSEN --
------------------------------------------------------------------------------
------------------------------------------------------------------------------
                   ___                                                        
                  /   \      - P O W E R E D   B Y -                         
                 /     \                                                     
                 |  |  |   _    _      __       _____    __    __             
                 |  |  |  | |  | |    /  \     |  _  \  |  |  /  |          
                  \  \/   | |  | |   /    \    | | | |  |  | /  /          
                 / \  \   | |__| |  /  /\  \   | |_| |  |  |/  /          
                |  |  |   |  __  | /  /__\  \  |    /   |      \           
                |  |  |   | |  | | |   __   |  |    \   |  |\   \          
                \     /   | |  | | |  |  |  |  | |\  \  |  | \   \       
                 \___/    |_|  |_| |__|  |__|  |_| \__\ |__|  \__/        
                                                                              
                      - O R C A' S   B I G   F R I E N D -                    
                                      &                                       
                       - I N T E G R A L  F E E D E R -                       
                                                                              
 v1 FN, 2020, v2 2021                                                         
------------------------------------------------------------------------------


Reading SHARK input file 02_tpss_freq.SHARKINP.tmp ... ok
----------------------
SHARK INTEGRAL PACKAGE
----------------------

Number of atoms                             ...     10
Number of basis functions                   ...     90
Number of shells                            ...     44
Maximum angular momentum                    ...      2
Integral batch strategy                     ... SHARK/LIBINT Hybrid
RI-J (if used) integral strategy            ... SPLIT-RIJ (Revised 2003 algorithm where possible)
Printlevel                                  ...      1
Contraction scheme used                     ... SEGMENTED contraction
Coulomb Range Separation                    ... NOT USED
Exchange Range Separation                   ... NOT USED
Finite Nucleus Model                        ... NOT USED
Auxiliary Coulomb fitting basis             ... AVAILABLE
   # of basis functions in Aux-J            ...    264
   # of shells in Aux-J                     ...     92
   Maximum angular momentum in Aux-J        ...      4
Auxiliary J/K fitting basis                 ... NOT available
Auxiliary Correlation fitting basis         ... NOT available
Auxiliary 'external' fitting basis          ... NOT available
Integral threshold                          ...     1.000000e-10
Primitive cut-off                           ...     1.000000e-11
Primitive pair pre-selection threshold      ...     1.000000e-11

Calculating pre-screening integrals         ... done (  0.0 sec) Dimension = 44
Organizing shell pair data                  ... done (  0.0 sec)
Shell pair information
Total number of shell pairs                 ...       990
Shell pairs after pre-screening             ...       979
Total number of primitive shell pairs       ...      3650
Primitive shell pairs kept                  ...      2844
          la=0 lb=0:    319 shell pairs
          la=1 lb=0:    371 shell pairs
          la=1 lb=1:    119 shell pairs
          la=2 lb=0:    100 shell pairs
          la=2 lb=1:     60 shell pairs
          la=2 lb=2:     10 shell pairs

Calculating one electron integrals          ... done (  0.0 sec)
Calculating RI/J V-Matrix + Cholesky decomp.... done (  0.0 sec)
Calculating Nuclear repulsion               ... done (  0.0 sec) ENN=    180.660449306021 Eh

SHARK setup successfully completed in   0.1 seconds

Maximum memory used throughout the entire GTOINT-calculation: 9.7 MB
-------------------------------------------------------------------------------
                                 ORCA SCF
-------------------------------------------------------------------------------

------------
SCF SETTINGS
------------
Hamiltonian:
 Density Functional     Method          .... DFT(GTOs)
 Exchange Functional    Exchange        .... TPSS
 Correlation Functional Correlation     .... TPSS
 LDA part of GGA corr.  LDAOpt          .... PW91-LDA
 Gradients option       PostSCFGGA      .... off
   Density functional embedding theory  .... OFF
   NL short-range parameter             ....  5.000000
 RI-approximation to the Coulomb term is turned on
   Number of AuxJ basis functions       .... 264


General Settings:
 Integral files         IntName         .... 02_tpss_freq
 Hartree-Fock type      HFTyp           .... RHF
 Total Charge           Charge          ....    0
 Multiplicity           Mult            ....    1
 Number of Electrons    NEL             ....   42
 Basis Dimension        Dim             ....   90
 Nuclear Repulsion      ENuc            ....    180.6604493060 Eh

Convergence Acceleration:
 DIIS                   CNVDIIS         .... on
   Start iteration      DIISMaxIt       ....    12
   Startup error        DIISStart       ....  0.200000
   # of expansion vecs  DIISMaxEq       ....     5
   Bias factor          DIISBfac        ....   1.050
   Max. coefficient     DIISMaxC        ....  10.000
 Trust-Rad. Augm. Hess. CNVTRAH         .... auto
   Auto Start mean grad. ratio tolernc. ....  1.125000
   Auto Start start iteration           ....    20
   Auto Start num. interpolation iter.  ....    10
   Max. Number of Micro iterations      ....    16
   Max. Number of Macro iterations      .... Maxiter - #DIIS iter
   Number of Davidson start vectors     ....     2
   Converg. threshold I  (grad. norm)   ....   5.000e-05
   Converg. threshold II (energy diff.) ....   1.000e-06
   Grad. Scal. Fac. for Micro threshold ....   0.100
   Minimum threshold for Micro iter.    ....   0.010
   NR start threshold (gradient norm)   ....   0.001
   Initial trust radius                 ....   0.400
   Minimum AH scaling param. (alpha)    ....   1.000
   Maximum AH scaling param. (alpha)    .... 1000.000
   Orbital update algorithm             .... Taylor
   White noise on init. David. guess    .... on
   Maximum white noise                  ....   0.010
   Quad. conv. algorithm                .... NR
 SOSCF                  CNVSOSCF        .... on
   Start iteration      SOSCFMaxIt      ....   150
   Startup grad/error   SOSCFStart      ....  0.003300
 Level Shifting         CNVShift        .... on
   Level shift para.    LevelShift      ....    0.2500
   Turn off err/grad.   ShiftErr        ....    0.0010
 Zerner damping         CNVZerner       .... off
 Static damping         CNVDamp         .... on
   Fraction old density DampFac         ....    0.7000
   Max. Damping (<1)    DampMax         ....    0.9800
   Min. Damping (>=0)   DampMin         ....    0.0000
   Turn off err/grad.   DampErr         ....    0.1000
 Fernandez-Rico         CNVRico         .... off

SCF Procedure:
 Maximum # iterations   MaxIter         ....   125
 SCF integral mode      SCFMode         .... Direct
   Integral package                     .... SHARK and LIBINT hybrid scheme
 Reset frequency        DirectResetFreq ....    20
 Integral Threshold     Thresh          ....  1.000e-10 Eh
 Primitive CutOff       TCut            ....  1.000e-11 Eh

Convergence Tolerance:
 Convergence Check Mode ConvCheckMode   .... Total+1el-Energy
 Convergence forced     ConvForced      .... 0
 Energy Change          TolE            ....  1.000e-06 Eh
 1-El. energy change                    ....  1.000e-03 Eh
 Orbital Gradient       TolG            ....  5.000e-05
 Orbital Rotation angle TolX            ....  5.000e-05
 DIIS Error             TolErr          ....  1.000e-06


Diagonalization of the overlap matrix:
Smallest eigenvalue                        ... 5.555e-03
Time for diagonalization                   ...    0.001 sec
Threshold for overlap eigenvalues          ... 1.000e-08
Number of eigenvalues below threshold      ... 0
Time for construction of square roots      ...    0.000 sec
Total time needed                          ...    0.001 sec

Time for model grid setup =    0.046 sec

------------------------------
INITIAL GUESS: MODEL POTENTIAL
------------------------------
Loading Hartree-Fock densities                     ... done
Calculating cut-offs                               ... done
Initializing the effective Hamiltonian             ... done
Setting up the integral package (SHARK)            ... done
Starting the Coulomb interaction                   ... done (   0.0 sec)
Reading the grid                                   ... done
Mapping shells                                     ... done
Starting the XC term evaluation                    ... done (   0.0 sec)
  promolecular density results
     # of electrons  =     41.995343174
     EX              =    -45.016875094
     EC              =     -1.464078207
     EX+EC           =    -46.480953302
Transforming the Hamiltonian                       ... done (   0.0 sec)
Diagonalizing the Hamiltonian                      ... done (   0.0 sec)
Back transforming the eigenvectors                 ... done (   0.0 sec)
Now organizing SCF variables                       ... done
                      ------------------
                      INITIAL GUESS DONE (   0.1 sec)
                      ------------------
-------------------
DFT GRID GENERATION
-------------------

General Integration Accuracy     IntAcc      ... 4.388
Radial Grid Type                 RadialGrid  ... OptM3 with GC (2021)
Angular Grid (max. ang.)         AngularGrid ... 4 (Lebedev-302)
Angular grid pruning method      GridPruning ... 4 (adaptive)
Weight generation scheme         WeightScheme... Becke
Basis function cutoff            BFCut       ... 1.0000e-10
Integration weight cutoff        WCut        ... 1.0000e-14
Angular grids for H and He will be reduced by one unit
Partially contracted basis set               ... off
Rotationally invariant grid construction     ... off

Total number of grid points                  ...    45052
Total number of batches                      ...      710
Average number of points per batch           ...       63
Average number of grid points per atom       ...     4505
Time for grid setup =    0.224 sec

--------------
SCF ITERATIONS
--------------
ITER       Energy         Delta-E        Max-DP      RMS-DP      [F,P]     Damp
               ***  Starting incremental Fock matrix formation  ***
  0   -552.7767436237   0.000000000000 0.12820911  0.00622052  0.3111894 0.7000
  1   -552.8902919655  -0.113548341828 0.06322231  0.00339358  0.0714754 0.7000
                               ***Turning on DIIS***
  2   -552.9176183689  -0.027326403355 0.07092161  0.00363577  0.0296932 0.0000
  3   -552.9821984923  -0.064580123415 0.05384817  0.00249874  0.0482427 0.0000
  4   -552.9903129908  -0.008114498513 0.01819104  0.00072222  0.0441554 0.0000
  5   -552.9931958102  -0.002882819415 0.00837679  0.00027048  0.0118785 0.0000
  6   -552.9934288956  -0.000233085359 0.00196524  0.00010464  0.0039328 0.0000
                      *** Initiating the SOSCF procedure ***
                           *** Shutting down DIIS ***
                      *** Re-Reading the Fockian *** 
                      *** Removing any level shift *** 
ITER      Energy       Delta-E        Grad      Rot      Max-DP    RMS-DP
  7   -552.99345672  -0.0000278249  0.000162  0.000162  0.001273  0.000064
               *** Restarting incremental Fock matrix formation ***
  8   -552.99345811  -0.0000013882  0.000079  0.000312  0.000921  0.000027
  9   -552.99345760   0.0000005054  0.000218  0.000293  0.000369  0.000019
 10   -552.99345826  -0.0000006534  0.000095  0.000123  0.000464  0.000020
 11   -552.99345819   0.0000000647  0.000099  0.000066  0.000320  0.000012
                 **** Energy Check signals convergence ****
              ***Rediagonalizing the Fockian in SOSCF/NRSCF***

               *****************************************************
               *                     SUCCESS                       *
               *           SCF CONVERGED AFTER  12 CYCLES          *
               *****************************************************


----------------
TOTAL SCF ENERGY
----------------

Total Energy       :         -552.99345833 Eh          -15047.71701 eV

Components:
Nuclear Repulsion  :          180.66044931 Eh            4916.02075 eV
Electronic Energy  :         -733.65390764 Eh          -19963.73776 eV
One Electron Energy:        -1117.94400261 Eh          -30420.80287 eV
Two Electron Energy:          384.29009497 Eh           10457.06511 eV

Virial components:
Potential Energy   :        -1103.48667575 Eh          -30027.39901 eV
Kinetic Energy     :          550.49321741 Eh           14979.68200 eV
Virial Ratio       :            2.00454182


DFT components:
N(Alpha)           :       20.999990478752 electrons
N(Beta)            :       20.999990478752 electrons
N(Total)           :       41.999980957504 electrons
E(X)               :      -45.920762992000 Eh       
E(C)               :       -1.478801757855 Eh       
E(XC)              :      -47.399564749855 Eh       
DFET-embed. en.    :        0.000000000000 Eh       

---------------
SCF CONVERGENCE
---------------

  Last Energy change         ...   -1.4112e-07  Tolerance :   1.0000e-06
  Last MAX-Density change    ...    1.5300e-05  Tolerance :   1.0000e-05
  Last RMS-Density change    ...    6.8459e-07  Tolerance :   1.0000e-06
  Last Orbital Gradient      ...    2.9806e-06  Tolerance :   5.0000e-05
  Last Orbital Rotation      ...    6.5081e-06  Tolerance :   5.0000e-05

             **** THE GBW FILE WAS UPDATED (02_tpss_freq.gbw) ****
             **** DENSITY 02_tpss_freq.scfp WAS UPDATED ****
             **** ENERGY FILE WAS UPDATED (02_tpss_freq.en.tmp) ****
             **** THE GBW FILE WAS UPDATED (02_tpss_freq.gbw) ****
             **** DENSITY 02_tpss_freq.scfp WAS UPDATED ****
----------------
ORBITAL ENERGIES
----------------

  NO   OCC          E(Eh)            E(eV) 
   0   2.0000     -88.435995     -2406.4658 
   1   2.0000     -18.840636      -512.6798 
   2   2.0000     -10.032289      -272.9925 
   3   2.0000     -10.032258      -272.9916 
   4   2.0000      -7.824781      -212.9231 
   5   2.0000      -5.811014      -158.1257 
   6   2.0000      -5.809638      -158.0883 
   7   2.0000      -5.802479      -157.8935 
   8   2.0000      -0.918184       -24.9851 
   9   2.0000      -0.721201       -19.6249 
  10   2.0000      -0.658838       -17.9279 
  11   2.0000      -0.549300       -14.9472 
  12   2.0000      -0.423422       -11.5219 
  13   2.0000      -0.414750       -11.2859 
  14   2.0000      -0.413183       -11.2433 
  15   2.0000      -0.385868       -10.5000 
  16   2.0000      -0.354209        -9.6385 
  17   2.0000      -0.352671        -9.5967 
  18   2.0000      -0.310827        -8.4580 
  19   2.0000      -0.220096        -5.9891 
  20   2.0000      -0.185229        -5.0403 
  21   0.0000       0.012995         0.3536 
  22   0.0000       0.025524         0.6945 
  23   0.0000       0.037652         1.0246 
  24   0.0000       0.055256         1.5036 
  25   0.0000       0.087189         2.3725 
  26   0.0000       0.093799         2.5524 
  27   0.0000       0.097088         2.6419 
  28   0.0000       0.120682         3.2839 
  29   0.0000       0.136836         3.7235 
  30   0.0000       0.314499         8.5579 
  31   0.0000       0.372588        10.1386 
  32   0.0000       0.395697        10.7675 
  33   0.0000       0.409119        11.1327 
  34   0.0000       0.420911        11.4536 
  35   0.0000       0.470311        12.7978 
  36   0.0000       0.553227        15.0541 
  37   0.0000       0.590962        16.0809 
  38   0.0000       0.604207        16.4413 
  39   0.0000       0.605246        16.4696 
  40   0.0000       0.607208        16.5230 
  41   0.0000       0.624329        16.9888 
  42   0.0000       0.636434        17.3182 
  43   0.0000       0.637293        17.3416 
  44   0.0000       0.652456        17.7542 
  45   0.0000       0.676562        18.4102 
  46   0.0000       0.699703        19.0399 
  47   0.0000       0.717328        19.5195 
  48   0.0000       0.745944        20.2982 
  49   0.0000       0.826353        22.4862 
  50   0.0000       0.864419        23.5220 
  51   0.0000       1.004365        27.3302 
  52   0.0000       1.027027        27.9468 
  53   0.0000       1.041731        28.3470 
  54   0.0000       1.055989        28.7349 
  55   0.0000       1.102184        29.9920 
  56   0.0000       1.181675        32.1550 
  57   0.0000       1.211710        32.9723 
  58   0.0000       1.277170        34.7536 
  59   0.0000       1.282737        34.9050 
  60   0.0000       1.466942        39.9175 
  61   0.0000       1.484213        40.3875 
  62   0.0000       1.486140        40.4399 
  63   0.0000       1.697660        46.1957 
  64   0.0000       1.712196        46.5912 
  65   0.0000       1.720025        46.8043 
  66   0.0000       1.759304        47.8731 
  67   0.0000       1.781605        48.4799 
  68   0.0000       1.842777        50.1445 
  69   0.0000       1.916132        52.1406 
  70   0.0000       1.920047        52.2471 
  71   0.0000       1.923451        52.3398 
  72   0.0000       1.946821        52.9757 
  73   0.0000       2.137146        58.1547 
  74   0.0000       2.151948        58.5575 
  75   0.0000       2.368538        64.4512 
  76   0.0000       2.380368        64.7731 
  77   0.0000       2.381682        64.8089 
  78   0.0000       2.384255        64.8789 
  79   0.0000       2.639587        71.8268 
  80   0.0000       2.644702        71.9660 
  81   0.0000       2.651785        72.1587 
  82   0.0000       2.681414        72.9650 
  83   0.0000       2.750308        74.8397 
  84   0.0000       2.762575        75.1735 
  85   0.0000       2.851493        77.5931 
  86   0.0000       2.864422        77.9449 
  87   0.0000       2.887797        78.5810 
  88   0.0000       2.902338        78.9766 
  89   0.0000       3.259625        88.6989 

                    ********************************
                    * MULLIKEN POPULATION ANALYSIS *
                    ********************************

-----------------------
MULLIKEN ATOMIC CHARGES
-----------------------
   0 S :    0.375010
   1 C :   -0.111892
   2 C :   -0.111937
   3 O :   -0.549089
   4 H :    0.055687
   5 H :    0.075905
   6 H :    0.067330
   7 H :    0.055707
   8 H :    0.067369
   9 H :    0.075910
Sum of atomic charges:   -0.0000000

--------------------------------
MULLIKEN REDUCED ORBITAL CHARGES
--------------------------------
  0 S s       :     5.809299  s :     5.809299
      pz      :     3.481995  p :     9.500632
      px      :     3.098918
      py      :     2.919718
      dz2     :     0.024475  d :     0.315059
      dxz     :     0.037057
      dyz     :     0.092868
      dx2y2   :     0.053216
      dxy     :     0.107443
  1 C s       :     3.098870  s :     3.098870
      pz      :     1.005111  p :     2.987890
      px      :     0.990307
      py      :     0.992473
      dz2     :     0.005910  d :     0.025132
      dxz     :     0.005905
      dyz     :     0.003502
      dx2y2   :     0.006535
      dxy     :     0.003280
  2 C s       :     3.098839  s :     3.098839
      pz      :     1.009907  p :     2.987963
      px      :     0.982802
      py      :     0.995254
      dz2     :     0.005866  d :     0.025135
      dxz     :     0.006024
      dyz     :     0.003437
      dx2y2   :     0.006498
      dxy     :     0.003310
  3 O s       :     3.909229  s :     3.909229
      pz      :     1.766643  p :     4.625058
      px      :     1.681325
      py      :     1.177090
      dz2     :     0.001786  d :     0.014801
      dxz     :     0.000080
      dyz     :     0.003860
      dx2y2   :     0.005078
      dxy     :     0.003997
  4 H s       :     0.922294  s :     0.922294
      pz      :     0.004235  p :     0.022019
      px      :     0.004204
      py      :     0.013580
  5 H s       :     0.902095  s :     0.902095
      pz      :     0.005426  p :     0.022000
      px      :     0.011059
      py      :     0.005515
  6 H s       :     0.910849  s :     0.910849
      pz      :     0.012111  p :     0.021821
      px      :     0.003993
      py      :     0.005716
  7 H s       :     0.922274  s :     0.922274
      pz      :     0.004258  p :     0.022019
      px      :     0.004182
      py      :     0.013579
  8 H s       :     0.910811  s :     0.910811
      pz      :     0.012189  p :     0.021820
      px      :     0.003925
      py      :     0.005705
  9 H s       :     0.902091  s :     0.902091
      pz      :     0.005691  p :     0.021999
      px      :     0.010645
      py      :     0.005663


                     *******************************
                     * LOEWDIN POPULATION ANALYSIS *
                     *******************************

----------------------
LOEWDIN ATOMIC CHARGES
----------------------
   0 S :    0.771938
   1 C :   -0.177755
   2 C :   -0.177786
   3 O :   -0.585070
   4 H :    0.025236
   5 H :    0.031642
   6 H :    0.027444
   7 H :    0.025243
   8 H :    0.027454
   9 H :    0.031652

-------------------------------
LOEWDIN REDUCED ORBITAL CHARGES
-------------------------------
  0 S s       :     5.434261  s :     5.434261
      pz      :     3.445110  p :     9.391399
      px      :     3.022606
      py      :     2.923683
      dz2     :     0.031389  d :     0.402402
      dxz     :     0.045437
      dyz     :     0.117618
      dx2y2   :     0.073916
      dxy     :     0.134042
  1 C s       :     2.932732  s :     2.932732
      pz      :     1.067888  p :     3.183579
      px      :     1.048906
      py      :     1.066784
      dz2     :     0.014898  d :     0.061444
      dxz     :     0.014358
      dyz     :     0.008085
      dx2y2   :     0.016573
      dxy     :     0.007530
  2 C s       :     2.932713  s :     2.932713
      pz      :     1.070564  p :     3.183619
      px      :     1.044882
      py      :     1.068174
      dz2     :     0.014713  d :     0.061453
      dxz     :     0.014728
      dyz     :     0.007926
      dx2y2   :     0.016450
      dxy     :     0.007637
  3 O s       :     3.743911  s :     3.743911
      pz      :     1.786962  p :     4.816525
      px      :     1.694957
      py      :     1.334605
      dz2     :     0.003466  d :     0.024634
      dxz     :     0.000101
      dyz     :     0.005720
      dx2y2   :     0.010532
      dxy     :     0.004815
  4 H s       :     0.906233  s :     0.906233
      pz      :     0.012190  p :     0.068531
      px      :     0.013024
      py      :     0.043318
  5 H s       :     0.900322  s :     0.900322
      pz      :     0.016389  p :     0.068036
      px      :     0.036904
      py      :     0.014743
  6 H s       :     0.903381  s :     0.903381
      pz      :     0.040739  p :     0.069175
      px      :     0.013119
      py      :     0.015317
  7 H s       :     0.906224  s :     0.906224
      pz      :     0.012152  p :     0.068533
      px      :     0.013175
      py      :     0.043206
  8 H s       :     0.903370  s :     0.903370
      pz      :     0.040771  p :     0.069175
      px      :     0.013117
      py      :     0.015287
  9 H s       :     0.900314  s :     0.900314
      pz      :     0.017111  p :     0.068034
      px      :     0.035702
      py      :     0.015221


                      *****************************
                      * MAYER POPULATION ANALYSIS *
                      *****************************

  NA   - Mulliken gross atomic population
  ZA   - Total nuclear charge
  QA   - Mulliken gross atomic charge
  VA   - Mayer's total valence
  BVA  - Mayer's bonded valence
  FA   - Mayer's free valence

  ATOM       NA         ZA         QA         VA         BVA        FA
  0 S     15.6250    16.0000     0.3750     3.3333     3.3333    -0.0000
  1 C      6.1119     6.0000    -0.1119     3.8307     3.8307    -0.0000
  2 C      6.1119     6.0000    -0.1119     3.8307     3.8307    -0.0000
  3 O      8.5491     8.0000    -0.5491     1.8009     1.8009     0.0000
  4 H      0.9443     1.0000     0.0557     0.9906     0.9906    -0.0000
  5 H      0.9241     1.0000     0.0759     0.9926     0.9926    -0.0000
  6 H      0.9327     1.0000     0.0673     1.0015     1.0015    -0.0000
  7 H      0.9443     1.0000     0.0557     0.9906     0.9906    -0.0000
  8 H      0.9326     1.0000     0.0674     1.0015     1.0015    -0.0000
  9 H      0.9241     1.0000     0.0759     0.9927     0.9927    -0.0000

  Mayer bond orders larger than 0.100000
B(  0-S ,  1-C ) :   0.8595 B(  0-S ,  2-C ) :   0.8596 B(  0-S ,  3-O ) :   1.5307 
B(  1-C ,  4-H ) :   0.9516 B(  1-C ,  5-H ) :   0.9651 B(  1-C ,  6-H ) :   0.9577 
B(  2-C ,  7-H ) :   0.9516 B(  2-C ,  8-H ) :   0.9577 B(  2-C ,  9-H ) :   0.9651 


-------
TIMINGS
-------

Total SCF time: 0 days 0 hours 0 min 4 sec 

Total time                  ....       4.776 sec
Sum of individual times     ....       4.725 sec  ( 98.9%)

Fock matrix formation       ....       4.372 sec  ( 91.5%)
  Split-RI-J                ....       0.556 sec  ( 12.7% of F)
  XC integration            ....       3.809 sec  ( 87.1% of F)
    Basis function eval.    ....       0.785 sec  ( 20.6% of XC)
    Density eval.           ....       1.165 sec  ( 30.6% of XC)
    XC-Functional eval.     ....       0.503 sec  ( 13.2% of XC)
    XC-Potential eval.      ....       1.273 sec  ( 33.4% of XC)
Diagonalization             ....       0.008 sec  (  0.2%)
Density matrix formation    ....       0.001 sec  (  0.0%)
Population analysis         ....       0.002 sec  (  0.0%)
Initial guess               ....       0.069 sec  (  1.4%)
Orbital Transformation      ....       0.000 sec  (  0.0%)
Orbital Orthonormalization  ....       0.000 sec  (  0.0%)
DIIS solution               ....       0.002 sec  (  0.0%)
SOSCF solution              ....       0.002 sec  (  0.1%)
Grid generation             ....       0.269 sec  (  5.6%)

Maximum memory used throughout the entire SCF-calculation: 23.8 MB

-------------------------   --------------------
FINAL SINGLE POINT ENERGY      -552.993458333088
-------------------------   --------------------


                            ***************************************
                            *     ORCA property calculations      *
                            ***************************************

                                    ---------------------
                                    Active property flags
                                    ---------------------
   (+) Dipole Moment


------------------------------------------------------------------------------
                       ORCA ELECTRIC PROPERTIES CALCULATION
------------------------------------------------------------------------------

Dipole Moment Calculation                       ... on
Quadrupole Moment Calculation                   ... off
Polarizability Calculation                      ... off
GBWName                                         ... 02_tpss_freq.gbw
Electron density                                ... 02_tpss_freq.scfp
The origin for moment calculation is the CENTER OF MASS  = ( 0.033302,  1.422802  1.224176)

-------------
DIPOLE MOMENT
-------------
                                X             Y             Z
Electronic contribution:      0.11625       3.18021       3.95482
Nuclear contribution   :     -0.14273      -4.57504      -4.37020
                        -----------------------------------------
Total Dipole Moment    :     -0.02648      -1.39483      -0.41538
                        -----------------------------------------
Magnitude (a.u.)       :      1.45561
Magnitude (Debye)      :      3.69986



--------------------
Rotational spectrum 
--------------------
 
Rotational constants in cm-1:     0.223334     0.220380     0.134505 
Rotational constants in MHz :  6695.399076  6606.820885  4032.351513 

 Dipole components along the rotational axes: 
x,y,z [a.u.] :     0.005639    -1.439924     0.213019 
x,y,z [Debye]:     0.014333    -3.659996     0.541451 

 

-------------------------------------------------------------------------------
                               ORCA SCF HESSIAN
-------------------------------------------------------------------------------

                   --------- SHARK INITIALIZATION DONE ---------

Hessian of the Kohn-Sham DFT energy:
Kohn-Sham wavefunction type                      ... RKS
Hartree-Fock exchange scaling                    ...    0.000
Number of operators                              ...    1
Number of atoms                                  ...   10
Basis set dimensions                             ...   90
Integral neglect threshold                       ... 1.0e-10
Integral primitive cutoff                        ... 1.0e-11

Setting up DFT Hessian calculations              ... 

HESS GRID
---------

General Integration Accuracy     IntAcc      ... 4.629
Radial Grid Type                 RadialGrid  ... OptM3 with GC (2021)
Angular Grid (max. ang.)         AngularGrid ... 5 (Lebedev-434)
Angular grid pruning method      GridPruning ... 4 (adaptive)
Weight generation scheme         WeightScheme... Becke
Basis function cutoff            BFCut       ... 1.0000e-10
Integration weight cutoff        WCut        ... 1.0000e-14
Angular grids for H and He will be reduced by one unit
Partially contracted basis set               ... off
Rotationally invariant grid construction     ... off

Total number of grid points                  ...    69149
Total number of batches                      ...     1085
Average number of points per batch           ...       63
Average number of grid points per atom       ...     6915

Building densities                               ... done   (      0.0 sec)
Calculating rho(r) on the grid                   ... done   (      0.3 sec)
Building xc-kernel on the grid                   ... done   (      0.1 sec)
                                                     done   (      0.9 sec)

Nuclear repulsion Hessian  (SHARK)               ... done   (      0.0 sec)

----------------------------------------------
Forming right-hand sides of CP-SCF equations     ...
----------------------------------------------
One electron integral derivatives  (SHARK)       ... done   (      0.0 sec)
Transforming the overlap derivative matrices     ... done   (      0.0 sec)
Making the Q(x) pseudodensities                  ... done   (      0.0 sec)
Adding the E*S(x)*S(y) terms to the Hessian      ... done   (      0.0 sec)
Calculating energy weighted overlap derivatives  ... done   (      0.0 sec)
Two electron integral derivatives (SHARK-RI)     ... done   (      0.4 sec)
Exchange-correlation integral derivatives        ... done   (     22.0 sec)
tr(F(y)Q(x)) contribution to the Hessian         ... done   (      0.0 sec)
Response fock operator R(S(x)) (SHARK-RI)        ... done   (      0.2 sec)
XC Response fock operator R(S(x))                ... done   (      9.2 sec)
tr(F(y)S(x)) contribution to the Hessian         ... done   (      0.0 sec)
Transforming and finalizing RHSs                 ... done   (      0.0 sec)

----------------------------------------------
Solving the CP-SCF equations (RI)                ...
----------------------------------------------
     CP-SCF ITERATION   0:   9.7841e-01 (   1.7 sec   0/ 30 done)
     CP-SCF ITERATION   1:   4.0581e-02 (   1.5 sec   0/ 30 done)
     CP-SCF ITERATION   2:   9.2398e-03 (   1.4 sec   3/ 30 done)
     CP-SCF ITERATION   3:   2.3436e-03 (   1.4 sec  12/ 30 done)
     CP-SCF ITERATION   4:   6.0353e-04 (   0.9 sec  30/ 30 done)
                    *** THE CP-SCF HAS CONVERGED ***

                                                 ... done   (      7.0 sec)
Forming perturbed density Hessian contributions  ... done   (      0.0 sec)
2nd integral derivative contribs (SHARK-RI)      ... done   (      1.8 sec)
Exchange-correlation Hessian                     ... done   (     17.6 sec)
Dipole derivatives                               ... (center of mass:  0.033302,  1.422802  1.224176)done   (      0.1 sec)

Total SCF Hessian time: 0 days 0 hours 0 min 59 sec 

Writing the Hessian file to the disk             ... done


Maximum memory used throughout the entire SCFHESS-calculation: 71.4 MB

-----------------------
VIBRATIONAL FREQUENCIES
-----------------------

Scaling factor for frequencies =  1.000000000  (already applied!)

   0:         0.00 cm**-1
   1:         0.00 cm**-1
   2:         0.00 cm**-1
   3:         0.00 cm**-1
   4:         0.00 cm**-1
   5:         0.00 cm**-1
   6:       173.89 cm**-1
   7:       215.89 cm**-1
   8:       262.97 cm**-1
   9:       290.04 cm**-1
  10:       344.74 cm**-1
  11:       588.51 cm**-1
  12:       611.85 cm**-1
  13:       854.75 cm**-1
  14:       890.06 cm**-1
  15:       926.82 cm**-1
  16:       989.81 cm**-1
  17:      1085.44 cm**-1
  18:      1266.21 cm**-1
  19:      1292.27 cm**-1
  20:      1420.13 cm**-1
  21:      1431.94 cm**-1
  22:      1437.33 cm**-1
  23:      1454.07 cm**-1
  24:      3007.44 cm**-1
  25:      3008.00 cm**-1
  26:      3128.32 cm**-1
  27:      3130.15 cm**-1
  28:      3137.11 cm**-1
  29:      3137.44 cm**-1


------------
NORMAL MODES
------------

These modes are the Cartesian displacements weighted by the diagonal matrix
M(i,i)=1/sqrt(m[i]) where m[i] is the mass of the displaced atom
Thus, these vectors are normalized but *not* orthogonal

                  0          1          2          3          4          5    
      0       0.000000   0.000000   0.000000   0.000000   0.000000   0.000000
      1       0.000000   0.000000   0.000000   0.000000   0.000000   0.000000
      2       0.000000   0.000000   0.000000   0.000000   0.000000   0.000000
      3       0.000000   0.000000   0.000000   0.000000   0.000000   0.000000
      4       0.000000   0.000000   0.000000   0.000000   0.000000   0.000000
      5       0.000000   0.000000   0.000000   0.000000   0.000000   0.000000
      6       0.000000   0.000000   0.000000   0.000000   0.000000   0.000000
      7       0.000000   0.000000   0.000000   0.000000   0.000000   0.000000
      8       0.000000   0.000000   0.000000   0.000000   0.000000   0.000000
      9       0.000000   0.000000   0.000000   0.000000   0.000000   0.000000
     10       0.000000   0.000000   0.000000   0.000000   0.000000   0.000000
     11       0.000000   0.000000   0.000000   0.000000   0.000000   0.000000
     12       0.000000   0.000000   0.000000   0.000000   0.000000   0.000000
     13       0.000000   0.000000   0.000000   0.000000   0.000000   0.000000
     14       0.000000   0.000000   0.000000   0.000000   0.000000   0.000000
     15       0.000000   0.000000   0.000000   0.000000   0.000000   0.000000
     16       0.000000   0.000000   0.000000   0.000000   0.000000   0.000000
     17       0.000000   0.000000   0.000000   0.000000   0.000000   0.000000
     18       0.000000   0.000000   0.000000   0.000000   0.000000   0.000000
     19       0.000000   0.000000   0.000000   0.000000   0.000000   0.000000
     20       0.000000   0.000000   0.000000   0.000000   0.000000   0.000000
     21       0.000000   0.000000   0.000000   0.000000   0.000000   0.000000
     22       0.000000   0.000000   0.000000   0.000000   0.000000   0.000000
     23       0.000000   0.000000   0.000000   0.000000   0.000000   0.000000
     24       0.000000   0.000000   0.000000   0.000000   0.000000   0.000000
     25       0.000000   0.000000   0.000000   0.000000   0.000000   0.000000
     26       0.000000   0.000000   0.000000   0.000000   0.000000   0.000000
     27       0.000000   0.000000   0.000000   0.000000   0.000000   0.000000
     28       0.000000   0.000000   0.000000   0.000000   0.000000   0.000000
     29       0.000000   0.000000   0.000000   0.000000   0.000000   0.000000
                  6          7          8          9         10         11    
      0       0.000403   0.000335  -0.001165  -0.111171   0.002068   0.004478
      1       0.000004   0.015749  -0.079453   0.001022  -0.050399   0.076158
      2       0.000037   0.008579  -0.034396   0.001572   0.156850   0.176447
      3      -0.002020  -0.012504   0.167127  -0.067639  -0.120232   0.269999
      4      -0.029012  -0.020353   0.110224   0.177868   0.088280  -0.121591
      5       0.013542   0.014683   0.083568   0.031516  -0.038012  -0.171062
      6      -0.001601   0.012496  -0.160423  -0.076074   0.120879  -0.279665
      7       0.029039  -0.020700   0.116027  -0.174719   0.084577  -0.114393
      8      -0.013579   0.014222   0.089783  -0.027552  -0.042499  -0.160940
      9       0.000047  -0.000577  -0.004606   0.346321  -0.004549   0.000236
     10       0.000008   0.009849  -0.083521  -0.004977  -0.093385   0.053835
     11       0.000025  -0.041816  -0.108952  -0.006809  -0.202648  -0.023907
     12       0.221809  -0.278456   0.360326   0.235812   0.050495   0.278516
     13      -0.032899  -0.014944   0.104837   0.171096   0.083496  -0.122711
     14       0.368292  -0.306414  -0.054411  -0.083977  -0.230965  -0.272006
     15      -0.035960   0.033842   0.023260  -0.169871  -0.062520   0.310387
     16       0.299972  -0.374235   0.225440   0.411550   0.179072  -0.094539
     17      -0.187487   0.209571   0.301620   0.056051  -0.240212  -0.276805
     18      -0.171510   0.179378   0.285213  -0.172798  -0.458415   0.052881
     19      -0.382754   0.306133   0.235683   0.263393   0.257641  -0.023793
     20      -0.106973   0.121300   0.119348   0.079407   0.073457  -0.101218
     21       0.208561   0.266716  -0.361083   0.229223  -0.056169  -0.292254
     22       0.027147  -0.022212   0.115889  -0.176134   0.084462  -0.115232
     23      -0.376014  -0.317096  -0.042568   0.075972  -0.228083  -0.261705
     24      -0.156399  -0.166740  -0.273095  -0.187677   0.467662  -0.057112
     25       0.386601   0.311161   0.246124  -0.256902   0.244091  -0.022394
     26       0.112954   0.128023   0.130599  -0.071493   0.055877  -0.099271
     27      -0.036932  -0.036128  -0.004356  -0.183206   0.057642  -0.323425
     28      -0.298649  -0.373974   0.228776  -0.404023   0.176703  -0.086145
     29       0.188088   0.211017   0.303076  -0.045112  -0.243004  -0.265489
                 12         13         14         15         16         17    
      0       0.205811   0.025703  -0.053772   0.000680   0.001128  -0.003145
      1      -0.002726  -0.000363   0.000723  -0.000497   0.012642  -0.334351
      2      -0.003892  -0.000558   0.000967   0.038146   0.051749   0.067647
      3      -0.199577  -0.055693   0.043096   0.029456  -0.072120   0.025392
      4       0.139112  -0.007352   0.085442   0.097179  -0.020630   0.060366
      5       0.167233  -0.058395  -0.053369  -0.040570  -0.079583  -0.041129
      6      -0.208646  -0.053308   0.042773  -0.028301   0.068476  -0.025357
      7      -0.133701   0.008833  -0.086808   0.097743  -0.022483   0.061042
      8      -0.159523   0.060593   0.051819  -0.039367  -0.082096  -0.040228
      9      -0.021221  -0.005252   0.042264  -0.001905  -0.000234   0.006122
     10       0.000275   0.000086  -0.000453  -0.103030   0.001091   0.607351
     11       0.000426   0.000130  -0.000754  -0.030289  -0.014094  -0.102926
     12      -0.460167   0.166140  -0.386417  -0.395209   0.207137  -0.307335
     13       0.146745  -0.012249   0.094842   0.107266  -0.027896   0.064793
     14       0.345129   0.068516   0.304312   0.334603   0.047237   0.284901
     15      -0.069626  -0.305511   0.146360   0.144142  -0.325020   0.045036
     16      -0.061407   0.123506  -0.206592  -0.211990   0.124976  -0.142094
     17       0.057456   0.378974  -0.036333  -0.029392   0.353252   0.062403
     18      -0.133544   0.428121   0.244213   0.213123   0.410913   0.070272
     19      -0.023007  -0.062184  -0.249642  -0.230982  -0.053701  -0.146438
     20       0.095432  -0.144192  -0.215187  -0.194230  -0.153459  -0.117822
     21      -0.476226   0.163793  -0.400721   0.409168  -0.205563   0.319325
     22      -0.134261   0.007896  -0.084532   0.096287  -0.022376   0.056392
     23      -0.327767  -0.074619  -0.290139   0.318659   0.054715   0.272957
     24      -0.135901   0.435231   0.259370  -0.225807  -0.417074  -0.078577
     25       0.026789   0.050726   0.243426  -0.224570  -0.042509  -0.144457
     26      -0.090241   0.128222   0.206234  -0.185553  -0.137678  -0.115100
     27      -0.069391  -0.323083   0.153438  -0.150588   0.340848  -0.046279
     28       0.063002  -0.115174   0.202976  -0.207538   0.115835  -0.140526
     29      -0.054843  -0.367428   0.030807  -0.024084   0.340244   0.064172
                 18         19         20         21         22         23    
      0       0.004064   0.000063   0.004504   0.000138  -0.002682  -0.000007
      1      -0.000081   0.006685  -0.000070   0.000583   0.000033   0.005710
      2      -0.000080  -0.002511  -0.000111   0.005242   0.000061  -0.004331
      3       0.064439   0.059880   0.031526   0.030947  -0.006998   0.007832
      4      -0.033033  -0.037358   0.008103   0.010009  -0.042421   0.039042
      5      -0.054071  -0.054821   0.033368   0.028596   0.018053  -0.020140
      6       0.067586  -0.062614   0.030315  -0.029241  -0.006615  -0.007537
      7       0.031432  -0.035578  -0.009030   0.010623   0.042623   0.039277
      8       0.051855  -0.052309  -0.034854   0.029436  -0.017732  -0.019862
      9      -0.000985  -0.000094  -0.001127  -0.000053   0.001076   0.000031
     10       0.000049  -0.011977   0.000021  -0.000467  -0.000018  -0.001566
     11       0.000007   0.003296   0.000030  -0.002299  -0.000027   0.002842
     12      -0.318036  -0.308872  -0.266687  -0.268646  -0.245301   0.253324
     13      -0.007831  -0.013198   0.012912   0.014066  -0.024234   0.021720
     14       0.267170   0.270806  -0.434633  -0.426450   0.021459  -0.007732
     15      -0.198841  -0.206810  -0.108552  -0.122351   0.005998  -0.009544
     16       0.199664   0.211205   0.242869   0.236330   0.375673  -0.374641
     17       0.290899   0.284630   0.112631   0.139671  -0.345408   0.348374
     18      -0.307034  -0.296059  -0.063490  -0.071011   0.356601  -0.363501
     19       0.216053   0.237303  -0.364552  -0.374075   0.213222  -0.190350
     20       0.109763   0.113690  -0.109674  -0.117451   0.060631  -0.053832
     21      -0.329168   0.317119  -0.252993   0.250574  -0.244407  -0.252811
     22       0.016577  -0.021516  -0.006124   0.007025   0.030793   0.028479
     23      -0.256071   0.257772   0.448987  -0.431720  -0.013169   0.001808
     24      -0.317840   0.304762  -0.050125   0.055167   0.348235   0.356095
     25      -0.208534   0.228157   0.369981  -0.371495  -0.223400  -0.200057
     26      -0.098441   0.101907   0.113108  -0.118565  -0.074131  -0.067432
     27      -0.215874   0.221938  -0.120397   0.132388   0.009307   0.012662
     28      -0.195035   0.204612  -0.242157   0.231167  -0.375230  -0.375137
     29      -0.284464   0.275274  -0.109650   0.132805   0.345302   0.348113
                 24         25         26         27         28         29    
      0      -0.000143   0.000000  -0.000005   0.000001  -0.000230   0.000101
      1      -0.000000  -0.000186  -0.000002   0.000384   0.000091   0.000208
      2       0.000003  -0.000001   0.000001  -0.000269   0.000047   0.000104
      3       0.017762  -0.018840  -0.002804  -0.002001  -0.024802   0.060521
      4      -0.013571   0.012336  -0.059547   0.057035  -0.009234   0.033106
      5      -0.019412   0.020332   0.033076  -0.035881  -0.024964   0.054154
      6       0.019354   0.019420  -0.002419   0.002349  -0.057435  -0.023826
      7       0.013348   0.011437   0.059108   0.057407   0.031813   0.017400
      8       0.019233   0.019123  -0.032688  -0.036422   0.058074   0.021417
      9      -0.000024   0.000004  -0.000031  -0.000007   0.000110  -0.000052
     10       0.000006   0.000421   0.000003  -0.000737  -0.000169  -0.000396
     11       0.000000  -0.000047  -0.000001   0.000206  -0.000010  -0.000019
     12       0.019465  -0.019629   0.017847  -0.017867  -0.000560  -0.000694
     13       0.439642  -0.437028   0.517167  -0.505604   0.073026  -0.274889
     14      -0.007503   0.007205  -0.001173   0.000676  -0.003807   0.010057
     15      -0.289525   0.302561   0.080820  -0.023639   0.278945  -0.679431
     16      -0.119200   0.123775   0.020830   0.000133   0.109098  -0.265390
     17      -0.145265   0.150750   0.045031  -0.017426   0.129378  -0.319713
     18       0.060746  -0.061199  -0.064882   0.062536   0.021873  -0.037418
     19      -0.159171   0.165936   0.170152  -0.174381  -0.071780   0.145338
     20       0.379778  -0.399732  -0.435617   0.447013   0.168403  -0.336070
     21       0.008230   0.007940   0.004034   0.004451  -0.006029  -0.002671
     22      -0.450968  -0.425531  -0.513095  -0.509803  -0.248648  -0.141651
     23       0.007112   0.006458   0.000711   0.000192   0.009911   0.004411
     24       0.051994   0.049265  -0.052565  -0.050902   0.032389   0.007865
     25       0.162014   0.160413  -0.167165  -0.174843   0.152021   0.051462
     26      -0.392316  -0.391933   0.433928   0.453902  -0.356568  -0.118197
     27      -0.288253  -0.285930   0.077642   0.021334   0.658862   0.272722
     28       0.130253   0.128389  -0.022652   0.000327  -0.282955  -0.117031
     29       0.160242   0.157891  -0.047544  -0.017540  -0.343191  -0.143965


-----------
IR SPECTRUM
-----------

 Mode   freq       eps      Int      T**2         TX        TY        TZ
       cm**-1   L/(mol*cm) km/mol    a.u.
----------------------------------------------------------------------------
  6:    173.89   0.000003    0.01  0.000004  (-0.002116  0.000120 -0.000065)
  7:    215.89   0.000185    0.93  0.000267  ( 0.000352 -0.005621  0.015337)
  8:    262.97   0.000122    0.62  0.000145  ( 0.000317 -0.000098  0.012027)
  9:    290.04   0.001349    6.82  0.001451  (-0.038087  0.000519  0.000658)
 10:    344.74   0.001254    6.34  0.001135  ( 0.000633  0.005479  0.033238)
 11:    588.51   0.002229   11.26  0.001182  ( 0.000737  0.027195  0.021015)
 12:    611.85   0.004727   23.89  0.002411  ( 0.049091 -0.000723 -0.000838)
 13:    854.75   0.000263    1.33  0.000096  ( 0.009801 -0.000123 -0.000307)
 14:    890.06   0.000818    4.13  0.000287  (-0.016925  0.000175  0.000382)
 15:    926.82   0.001087    5.49  0.000366  ( 0.000526  0.009033  0.016853)
 16:    989.81   0.002716   13.73  0.000856  ( 0.000584  0.017355  0.023553)
 17:   1085.44   0.020424  103.21  0.005872  (-0.001227 -0.075243 -0.014452)
 18:   1266.21   0.000034    0.17  0.000009  (-0.002913 -0.000026  0.000125)
 19:   1292.27   0.000970    4.90  0.000234  ( 0.000418  0.006410  0.013888)
 20:   1420.13   0.001449    7.32  0.000318  (-0.017836  0.000204  0.000483)
 21:   1431.94   0.000980    4.95  0.000214  (-0.000331 -0.001628 -0.014521)
 22:   1437.33   0.000000    0.00  0.000000  ( 0.000324 -0.000034 -0.000007)
 23:   1454.07   0.002767   13.98  0.000594  (-0.000129 -0.021438  0.011587)
 24:   3007.44   0.001227    6.20  0.000127  ( 0.011284 -0.000040 -0.000118)
 25:   3008.00   0.001644    8.31  0.000171  ( 0.000105  0.009887  0.008532)
 26:   3128.32   0.000009    0.05  0.000001  (-0.000969 -0.000046  0.000058)
 27:   3130.15   0.002421   12.23  0.000241  ( 0.000028  0.013122 -0.008317)
 28:   3137.11   0.000369    1.86  0.000037  (-0.004976  0.001924  0.002872)
 29:   3137.44   0.000679    3.43  0.000068  ( 0.002284  0.004313  0.006611)

* The epsilon (eps) is given for a Dirac delta lineshape.
** The dipole moment derivative (T) already includes vibrational overlap.

The first frequency considered to be a vibration is 6
The total number of vibrations considered is 24


--------------------------
THERMOCHEMISTRY AT 298.15K
--------------------------

Temperature         ... 298.15 K
Pressure            ... 1.00 atm
Total Mass          ... 78.13 AMU

Throughout the following assumptions are being made:
  (1) The electronic state is orbitally nondegenerate
  (2) There are no thermally accessible electronically excited states
  (3) Hindered rotations indicated by low frequency modes are not
      treated as such but are treated as vibrations and this may
      cause some error
  (4) All equations used are the standard statistical mechanics
      equations for an ideal gas
  (5) All vibrations are strictly harmonic

freq.     173.89  E(vib)   ...       0.38 
freq.     215.89  E(vib)   ...       0.34 
freq.     262.97  E(vib)   ...       0.29 
freq.     290.04  E(vib)   ...       0.27 
freq.     344.74  E(vib)   ...       0.23 
freq.     588.51  E(vib)   ...       0.10 
freq.     611.85  E(vib)   ...       0.10 
freq.     854.75  E(vib)   ...       0.04 
freq.     890.06  E(vib)   ...       0.04 
freq.     926.82  E(vib)   ...       0.03 
freq.     989.81  E(vib)   ...       0.02 
freq.    1085.44  E(vib)   ...       0.02 
freq.    1266.21  E(vib)   ...       0.01 
freq.    1292.27  E(vib)   ...       0.01 
freq.    1420.13  E(vib)   ...       0.00 
freq.    1431.94  E(vib)   ...       0.00 
freq.    1437.33  E(vib)   ...       0.00 
freq.    1454.07  E(vib)   ...       0.00 
freq.    3007.44  E(vib)   ...       0.00 
freq.    3008.00  E(vib)   ...       0.00 
freq.    3128.32  E(vib)   ...       0.00 
freq.    3130.15  E(vib)   ...       0.00 
freq.    3137.11  E(vib)   ...       0.00 
freq.    3137.44  E(vib)   ...       0.00 

------------
INNER ENERGY
------------

The inner energy is: U= E(el) + E(ZPE) + E(vib) + E(rot) + E(trans)
    E(el)   - is the total energy from the electronic structure calculation
              = E(kin-el) + E(nuc-el) + E(el-el) + E(nuc-nuc)
    E(ZPE)  - the the zero temperature vibrational energy from the frequency calculation
    E(vib)  - the the finite temperature correction to E(ZPE) due to population
              of excited vibrational states
    E(rot)  - is the rotational thermal energy
    E(trans)- is the translational thermal energy

Summary of contributions to the inner energy U:
Electronic energy                ...   -552.99345833 Eh
Zero point energy                ...      0.07765172 Eh      48.73 kcal/mol
Thermal vibrational correction   ...      0.00301123 Eh       1.89 kcal/mol
Thermal rotational correction    ...      0.00141627 Eh       0.89 kcal/mol
Thermal translational correction ...      0.00141627 Eh       0.89 kcal/mol
-----------------------------------------------------------------------
Total thermal energy                   -552.90996284 Eh


Summary of corrections to the electronic energy:
(perhaps to be used in another calculation)
Total thermal correction                  0.00584377 Eh       3.67 kcal/mol
Non-thermal (ZPE) correction              0.07765172 Eh      48.73 kcal/mol
-----------------------------------------------------------------------
Total correction                          0.08349549 Eh      52.39 kcal/mol


--------
ENTHALPY
--------

The enthalpy is H = U + kB*T
                kB is Boltzmann's constant
Total free energy                 ...   -552.90996284 Eh 
Thermal Enthalpy correction       ...      0.00094421 Eh       0.59 kcal/mol
-----------------------------------------------------------------------
Total Enthalpy                    ...   -552.90901863 Eh


Note: Only C1 symmetry has been detected, increase convergence thresholds 
      if your molecule has a higher symmetry. Symmetry factor of 1.0 is   
      used for the rotational entropy correction. 
 

Note: Rotational entropy computed according to Herzberg 
Infrared and Raman Spectra, Chapter V,1, Van Nostrand Reinhold, 1945 
Point Group:  C1, Symmetry Number:   1  
Rotational constants in cm-1:     0.223334     0.220380     0.134505 

Vibrational entropy computed according to the QRRHO of S. Grimme
Chem.Eur.J. 2012 18 9955


-------
ENTROPY
-------

The entropy contributions are T*S = T*(S(el)+S(vib)+S(rot)+S(trans))
     S(el)   - electronic entropy
     S(vib)  - vibrational entropy
     S(rot)  - rotational entropy
     S(trans)- translational entropy
The entropies will be listed as multiplied by the temperature to get
units of energy

Electronic entropy                ...      0.00000000 Eh      0.00 kcal/mol
Vibrational entropy               ...      0.00490560 Eh      3.08 kcal/mol
Rotational entropy                ...      0.01187959 Eh      7.45 kcal/mol
Translational entropy             ...      0.01852169 Eh     11.62 kcal/mol
-----------------------------------------------------------------------
Final entropy term                ...      0.03530689 Eh     22.16 kcal/mol

In case the symmetry of your molecule has not been determined correctly
or in case you have a reason to use a different symmetry number we print 
out the resulting rotational entropy values for sn=1,12 :
 --------------------------------------------------------
|  sn= 1 | S(rot)=       0.01187959 Eh      7.45 kcal/mol|
|  sn= 2 | S(rot)=       0.01122514 Eh      7.04 kcal/mol|
|  sn= 3 | S(rot)=       0.01084230 Eh      6.80 kcal/mol|
|  sn= 4 | S(rot)=       0.01057068 Eh      6.63 kcal/mol|
|  sn= 5 | S(rot)=       0.01035999 Eh      6.50 kcal/mol|
|  sn= 6 | S(rot)=       0.01018785 Eh      6.39 kcal/mol|
|  sn= 7 | S(rot)=       0.01004230 Eh      6.30 kcal/mol|
|  sn= 8 | S(rot)=       0.00991622 Eh      6.22 kcal/mol|
|  sn= 9 | S(rot)=       0.00980501 Eh      6.15 kcal/mol|
|  sn=10 | S(rot)=       0.00970553 Eh      6.09 kcal/mol|
|  sn=11 | S(rot)=       0.00961554 Eh      6.03 kcal/mol|
|  sn=12 | S(rot)=       0.00953339 Eh      5.98 kcal/mol|
 --------------------------------------------------------


-------------------
GIBBS FREE ENERGY
-------------------

The Gibbs free energy is G = H - T*S

Total enthalpy                    ...   -552.90901863 Eh 
Total entropy correction          ...     -0.03530689 Eh    -22.16 kcal/mol
-----------------------------------------------------------------------
Final Gibbs free energy         ...   -552.94432552 Eh

For completeness - the Gibbs free energy minus the electronic energy
G-E(el)                           ...      0.04913281 Eh     30.83 kcal/mol


Timings for individual modules:

Sum of individual times         ...       64.261 sec (=   1.071 min)
GTO integral calculation        ...        0.090 sec (=   0.002 min)   0.1 %
SCF iterations                  ...        4.790 sec (=   0.080 min)   7.5 %
Analytical frequency calculation...       59.381 sec (=   0.990 min)  92.4 %
                             ****ORCA TERMINATED NORMALLY****
TOTAL RUN TIME: 0 days 0 hours 1 minutes 4 seconds 351 msec
