
                                 *****************
                                 * O   R   C   A *
                                 *****************

           --- An Ab Initio, DFT and Semiempirical electronic structure package ---

                  #######################################################
                  #                        -***-                        #
                  #          Department of theory and spectroscopy      #
                  #               Directorship: Frank Neese             #
                  #        Max Planck Institute fuer Kohlenforschung    #
                  #                Kaiser Wilhelm Platz 1               #
                  #                 D-45470 Muelheim/Ruhr               #
                  #                      Germany                        #
                  #                                                     #
                  #                  All rights reserved                #
                  #                        -***-                        #
                  #######################################################


                         Program Version 4.2.1 -  RELEASE  -


 With contributions from (in alphabetic order):
   Daniel Aravena         : Magnetic Suceptibility
   Michael Atanasov       : Ab Initio Ligand Field Theory (pilot matlab implementation)
   Alexander A. Auer      : GIAO ZORA, VPT2
   Ute Becker             : Parallelization
   Giovanni Bistoni       : ED, misc. LED, open-shell LED, HFLD
   Martin Brehm           : Molecular dynamics
   Dmytro Bykov           : SCF Hessian
   Vijay G. Chilkuri      : MRCI spin determinant printing, contributions to CSF-ICE
   Dipayan Datta          : RHF DLPNO-CCSD density
   Achintya Kumar Dutta   : EOM-CC, STEOM-CC
   Dmitry Ganyushin       : Spin-Orbit,Spin-Spin,Magnetic field MRCI
   Miquel Garcia          : C-PCM Hessian, Gaussian charge scheme
   Yang Guo               : DLPNO-NEVPT2, CIM, IAO-localization
   Andreas Hansen         : Spin unrestricted coupled pair/coupled cluster methods
   Benjamin Helmich-Paris : CASSCF linear response (MC-RPA)
   Lee Huntington         : MR-EOM, pCC
   Robert Izsak           : Overlap fitted RIJCOSX, COSX-SCS-MP3, EOM
   Christian Kollmar      : KDIIS, OOCD, Brueckner-CCSD(T), CCSD density
   Simone Kossmann        : Meta GGA functionals, TD-DFT gradient, OOMP2, MP2 Hessian
   Martin Krupicka        : AUTO-CI
   Lucas Lang             : DCDCAS
   Dagmar Lenk            : GEPOL surface, SMD
   Dimitrios Liakos       : Extrapolation schemes; Compound Job, initial MDCI parallelization
   Dimitrios Manganas     : Further ROCIS development; embedding schemes
   Dimitrios Pantazis     : SARC Basis sets
   Taras Petrenko         : DFT Hessian,TD-DFT gradient, ASA, ECA, R-Raman, ABS, FL, XAS/XES, NRVS
   Peter Pinski           : DLPNO-MP2, DLPNO-MP2 Gradient
   Christoph Reimann      : Effective Core Potentials
   Marius Retegan         : Local ZFS, SOC
   Christoph Riplinger    : Optimizer, TS searches, QM/MM, DLPNO-CCSD(T), (RO)-DLPNO pert. Triples
   Tobias Risthaus        : Range-separated hybrids, TD-DFT gradient, RPA, STAB
   Michael Roemelt        : Original ROCIS implementation
   Masaaki Saitow         : Open-shell DLPNO-CCSD energy and density
   Barbara Sandhoefer     : DKH picture change effects
   Avijit Sen             : IP-ROCIS
   Kantharuban Sivalingam : CASSCF convergence, NEVPT2, FIC-MRCI
   Bernardo de Souza      : ESD, SOC TD-DFT
   Georgi Stoychev        : AutoAux, RI-MP2 NMR
   Willem Van den Heuvel  : Paramagnetic NMR
   Boris Wezisla          : Elementary symmetry handling
   Frank Wennmohs         : Technical directorship


 We gratefully acknowledge several colleagues who have allowed us to
 interface, adapt or use parts of their codes:
   Stefan Grimme, W. Hujo, H. Kruse,             : VdW corrections, initial TS optimization,
                  C. Bannwarth                     DFT functionals, gCP, sTDA/sTD-DF
   Ed Valeev, F. Pavosevic, A. Kumar             : LibInt (2-el integral package), F12 methods
   Garnet Chan, S. Sharma, J. Yang, R. Olivares  : DMRG
   Ulf Ekstrom                                   : XCFun DFT Library
   Mihaly Kallay                                 : mrcc  (arbitrary order and MRCC methods)
   Andreas Klamt, Michael Diedenhofen            : otool_cosmo (COSMO solvation model)
   Jiri Pittner, Ondrej Demel                    : Mk-CCSD
   Frank Weinhold                                : gennbo (NPA and NBO analysis)
   Christopher J. Cramer and Donald G. Truhlar   : smd solvation model
   Lars Goerigk                                  : TD-DFT with DH, B97 family of functionals
   V. Asgeirsson, H. Jonsson                     : NEB implementation
   FAccTs GmbH                                   : IRC, NEB, NEB-TS, Multilevel, MM, QM/MM, CI optimization
   S Lehtola, MJT Oliveira, MAL Marques          : LibXC Library


 Your calculation uses the libint2 library for the computation of 2-el integrals
 For citations please refer to: http://libint.valeyev.net

 Your ORCA version has been built with support for libXC version: 4.2.3
 For citations please refer to: https://tddft.org/programs/libxc/

 This ORCA versions uses:
   CBLAS   interface :  Fast vector & matrix operations
   LAPACKE interface :  Fast linear algebra routines
   SCALAPACK package :  Parallel linear algebra routines


Your calculation utilizes the atom-pairwise dispersion correction
with the Becke-Johnson damping scheme (D3BJ)
Cite in your paper:
S.Grimme, S.Ehrlich, L.Goerigk, J Comput Chem, (2011), 32, 1456–1465 
S.Grimme, J.Antony, S.Ehrlich and H.Krieg, J.Chem.Phys., 132, (2010), 154104 
   

Your calculation employs the composite approach B97-3c by Grimme and coworkers.
For the correct reference, please check the publication list of the Grimme group:
http://www.thch.uni-bonn.de/tc/index.php?section=publikationen&subsection=grimme#2017
   

XCFun DFT library Copyright 2009-2010 Ulf Ekstrom and contributors.
See http://admol.org/xcfun for more information. This is free soft-
ware; see the source code for copying conditions. There is ABSOLUTELY
NO WARRANTY; not even for MERCHANTABILITY or FITNESS FOR A PARTICULAR
PURPOSE. For details see the documentation. Scientific users of this 
library should cite U. Ekstrom, L. Visscher, R. Bast, A. J. Thorvald-
sen and K. Ruud; J.Chem.Theor.Comp. 2010, DOI: 10.1021/ct100117s
XCFun Version 0.99 
----- Orbital basis set information -----
Your calculation utilizes the basis: def2-mTZVP
----- AuxJ basis set information -----
Your calculation utilizes the basis: def2-mTZVP/J
================================================================================
                                        WARNINGS
                       Please study these warnings very carefully!
================================================================================


INFO   : the flag for use of LIBINT has been found!

================================================================================
                                       INPUT FILE
================================================================================
NAME = orca.inp
|  1> !b97-3c tightscf grid4 finalgrid5 freq
|  2>         
|  3> 
|  4>         %pal nprocs 24 end
|  5>         %maxcore 3000
|  6> 
|  7>         
|  8>         
|  9> 
| 10>         *xyz 0 1
| 11>         O 0.67871630 -2.32633193 -1.08520786
| 12> C 1.12582017 -2.25219497 0.04638945
| 13> C 0.73030045 -3.07685986 1.17278382
| 14> C -0.25123514 -4.05812287 0.99263482
| 15> C 1.29217640 -2.93560809 2.46243287
| 16> C 0.87417485 -3.74852289 3.50025776
| 17> C -0.67540151 -4.87170134 2.01538145
| 18> C -0.10362438 -4.71294579 3.28655650
| 19> O 2.25251182 -2.02600136 2.77270834
| 20> O -0.43760658 -5.45098872 4.36868883
| 21> C -1.42874749 -6.46130248 4.22418215
| 22> H 1.91096346 -1.48494433 0.25330667
| 23> H -0.67541143 -4.15917365 0.00357707
| 24> H 1.30975814 -3.63328868 4.48119787
| 25> H -1.43450663 -5.61411855 1.82880733
| 26> H 2.48307942 -1.50826916 1.99204354
| 27> H -1.52954959 -6.91653909 5.20331985
| 28> H -1.12217600 -7.22067658 3.50385182
| 29> H -2.38814617 -6.03879483 3.92327045
| 30>         *
| 31>                                   ****END OF INPUT****
================================================================================

                       ****************************
                       * Single Point Calculation *
                       ****************************

---------------------------------
CARTESIAN COORDINATES (ANGSTROEM)
---------------------------------
  O      0.678716   -2.326332   -1.085208
  C      1.125820   -2.252195    0.046389
  C      0.730300   -3.076860    1.172784
  C     -0.251235   -4.058123    0.992635
  C      1.292176   -2.935608    2.462433
  C      0.874175   -3.748523    3.500258
  C     -0.675402   -4.871701    2.015381
  C     -0.103624   -4.712946    3.286557
  O      2.252512   -2.026001    2.772708
  O     -0.437607   -5.450989    4.368689
  C     -1.428747   -6.461302    4.224182
  H      1.910963   -1.484944    0.253307
  H     -0.675411   -4.159174    0.003577
  H      1.309758   -3.633289    4.481198
  H     -1.434507   -5.614119    1.828807
  H      2.483079   -1.508269    1.992044
  H     -1.529550   -6.916539    5.203320
  H     -1.122176   -7.220677    3.503852
  H     -2.388146   -6.038795    3.923270

----------------------------
CARTESIAN COORDINATES (A.U.)
----------------------------
  NO LB      ZA    FRAG     MASS         X           Y           Z
   0 O     8.0000    0    15.999    1.282588   -4.396130   -2.050746
   1 C     6.0000    0    12.011    2.127492   -4.256032    0.087663
   2 C     6.0000    0    12.011    1.380068   -5.814422    2.216240
   3 C     6.0000    0    12.011   -0.474766   -7.668741    1.875808
   4 C     6.0000    0    12.011    2.441860   -5.547495    4.653324
   5 C     6.0000    0    12.011    1.651951   -7.083682    6.614529
   6 C     6.0000    0    12.011   -1.276324   -9.206181    3.808519
   7 C     6.0000    0    12.011   -0.195822   -8.906177    6.210692
   8 O     8.0000    0    15.999    4.256630   -3.828588    5.239659
   9 O     8.0000    0    15.999   -0.826957  -10.300876    8.255625
  10 C     6.0000    0    12.011   -2.699941  -12.210092    7.982547
  11 H     1.0000    0     1.008    3.611198   -2.806138    0.478680
  12 H     1.0000    0     1.008   -1.276343   -7.859699    0.006760
  13 H     1.0000    0     1.008    2.475084   -6.865921    8.468237
  14 H     1.0000    0     1.008   -2.710825  -10.609147    3.455945
  15 H     1.0000    0     1.008    4.692340   -2.850216    3.764417
  16 H     1.0000    0     1.008   -2.890430  -13.070365    9.832850
  17 H     1.0000    0     1.008   -2.120605  -13.645101    6.621320
  18 H     1.0000    0     1.008   -4.512942  -11.411668    7.413907

--------------------------------
INTERNAL COORDINATES (ANGSTROEM)
--------------------------------
 O      0   0   0     0.000000000000     0.00000000     0.00000000
 C      1   0   0     1.218979340024     0.00000000     0.00000000
 C      2   1   0     1.450955652829   125.88161908     0.00000000
 C      3   2   1     1.399550953496   119.32358047   359.88791105
 C      3   2   1     1.413807383586   122.88943141   180.02664355
 C      5   3   2     1.382980936298   120.37646721   179.86546787
 C      4   3   2     1.373986064508   122.40164771   180.14773468
 C      6   5   3     1.389917656827   120.33842506   359.96690429
 O      5   3   2     1.358638800216   123.78768831   359.76300866
 O      8   6   5     1.351762499876   115.44052140   180.03770651
 C     10   8   6     1.422665237393   118.59077194   180.22052752
 H      2   1   3     1.117111572917   118.13222005   180.07183552
 H      4   3   2     1.080912585722   117.29308681     0.12755250
 H      6   5   3     1.079469881511   119.81629367   179.96159541
 H      7   4   3     1.078069477895   119.75719829   180.01000970
 H      9   5   3     0.964699735174   110.08633447   359.90062758
 H     11  10   8     1.084487007764   105.73278469   179.88884516
 H     11  10   8     1.090647003640   111.45120889    61.25380756
 H     11  10   8     1.090644943458   111.45421268   298.51043105

---------------------------
INTERNAL COORDINATES (A.U.)
---------------------------
 O      0   0   0     0.000000000000     0.00000000     0.00000000
 C      1   0   0     2.303537115554     0.00000000     0.00000000
 C      2   1   0     2.741908816311   125.88161908     0.00000000
 C      3   2   1     2.644768012576   119.32358047   359.88791105
 C      3   2   1     2.671708761093   122.88943141   180.02664355
 C      5   3   2     2.613455218038   120.37646721   179.86546787
 C      4   3   2     2.596457373745   122.40164771   180.14773468
 C      6   5   3     2.626563720104   120.33842506   359.96690429
 O      5   3   2     2.567455247327   123.78768831   359.76300866
 O      8   6   5     2.554460922870   115.44052140   180.03770651
 C     10   8   6     2.688447678922   118.59077194   180.22052752
 H      2   1   3     2.111034933847   118.13222005   180.07183552
 H      4   3   2     2.042628761723   117.29308681     0.12755250
 H      6   5   3     2.039902445871   119.81629367   179.96159541
 H      7   4   3     2.037256066560   119.75719829   180.01000970
 H      9   5   3     1.823018300946   110.08633447   359.90062758
 H     11  10   8     2.049383440471   105.73278469   179.88884516
 H     11  10   8     2.061024145662   111.45120889    61.25380756
 H     11  10   8     2.061020252482   111.45421268   298.51043105

---------------------
BASIS SET INFORMATION
---------------------
There are 3 groups of distinct atoms

 Group   1 Type O   : 11s6p2d contracted to 5s3p2d pattern {62111/411/11}
 Group   2 Type C   : 11s6p1d contracted to 5s3p1d pattern {62111/411/1}
 Group   3 Type H   : 5s contracted to 3s pattern {311}

Atom   0O    basis set group =>   1
Atom   1C    basis set group =>   2
Atom   2C    basis set group =>   2
Atom   3C    basis set group =>   2
Atom   4C    basis set group =>   2
Atom   5C    basis set group =>   2
Atom   6C    basis set group =>   2
Atom   7C    basis set group =>   2
Atom   8O    basis set group =>   1
Atom   9O    basis set group =>   1
Atom  10C    basis set group =>   2
Atom  11H    basis set group =>   3
Atom  12H    basis set group =>   3
Atom  13H    basis set group =>   3
Atom  14H    basis set group =>   3
Atom  15H    basis set group =>   3
Atom  16H    basis set group =>   3
Atom  17H    basis set group =>   3
Atom  18H    basis set group =>   3
---------------------------------
AUXILIARY/J BASIS SET INFORMATION
---------------------------------
There are 3 groups of distinct atoms

 Group   1 Type O   : 8s3p3d contracted to 6s3p3d pattern {311111/111/111}
 Group   2 Type C   : 8s3p3d contracted to 6s3p3d pattern {311111/111/111}
 Group   3 Type H   : 5s2p contracted to 3s1p pattern {311/2}

Atom   0O    basis set group =>   1
Atom   1C    basis set group =>   2
Atom   2C    basis set group =>   2
Atom   3C    basis set group =>   2
Atom   4C    basis set group =>   2
Atom   5C    basis set group =>   2
Atom   6C    basis set group =>   2
Atom   7C    basis set group =>   2
Atom   8O    basis set group =>   1
Atom   9O    basis set group =>   1
Atom  10C    basis set group =>   2
Atom  11H    basis set group =>   3
Atom  12H    basis set group =>   3
Atom  13H    basis set group =>   3
Atom  14H    basis set group =>   3
Atom  15H    basis set group =>   3
Atom  16H    basis set group =>   3
Atom  17H    basis set group =>   3
Atom  18H    basis set group =>   3


           ************************************************************
           *        Program running with 24 parallel MPI-processes    *
           *              working on a common directory               *
           ************************************************************
------------------------------------------------------------------------------
                           ORCA GTO INTEGRAL CALCULATION
                           -- RI-GTO INTEGRALS CHOSEN --
------------------------------------------------------------------------------

                         BASIS SET STATISTICS AND STARTUP INFO

Gaussian basis set:
 # of primitive gaussian shells          ...  241
 # of primitive gaussian functions       ...  429
 # of contracted shells                  ...  126
 # of contracted basis functions         ...  248
 Highest angular momentum                ...    2
 Maximum contraction depth               ...    6
Auxiliary gaussian basis set:
 # of primitive gaussian shells          ...  210
 # of primitive gaussian functions       ...  440
 # of contracted shells                  ...  164
 # of contracted aux-basis functions     ...  378
 Highest angular momentum                ...    2
 Maximum contraction depth               ...    3
Ratio of auxiliary to basis functions    ...  1.52
Integral package used                  ... LIBINT
 One Electron integrals                  ... done
 Ordering auxiliary basis shells         ... done
 Integral threshhold             Thresh  ...  2.500e-11
 Primitive cut-off               TCut    ...  2.500e-12
 Pre-screening matrix                    ... done
 Shell pair data                         ... 
 Ordering of the shell pairs             ... done (   0.002 sec) 6925 of 8001 pairs
 Determination of significant pairs      ... done (   0.000 sec)
 Creation of shell pair data             ... done (   0.001 sec)
 Storage of shell pair data              ... done (   0.018 sec)
 Shell pair data done in (   0.021 sec)
 Computing two index integrals           ... done
 Cholesky decomposition of the V-matrix  ... done


Timings:
 Total evaluation time                   ...   0.798 sec (  0.013 min)
 One electron matrix time                ...   0.440 sec (  0.007 min) = 55.2%
 Schwartz matrix evaluation time         ...   0.281 sec (  0.005 min) = 35.3%
 Two index repulsion integral time       ...   0.010 sec (  0.000 min) =  1.2%
 Cholesky decomposition of V             ...   0.011 sec (  0.000 min) =  1.4%
 Three index repulsion integral time     ...   0.000 sec (  0.000 min) =  0.0%



           ************************************************************
           *        Program running with 24 parallel MPI-processes    *
           *              working on a common directory               *
           ************************************************************
-------------------------------------------------------------------------------
                                 ORCA SCF
-------------------------------------------------------------------------------

------------
SCF SETTINGS
------------
Hamiltonian:
 Density Functional     Method          .... DFT(GTOs)
 Exchange Functional    Exchange        .... B973C
 Correlation Functional Correlation     .... B973C
 Gradients option       PostSCFGGA      .... off
   Density functional embedding theory  .... OFF
 RI-approximation to the Coulomb term is turned on
   Number of auxiliary basis functions  .... 378


General Settings:
 Integral files         IntName         .... orca
 Hartree-Fock type      HFTyp           .... RHF
 Total Charge           Charge          ....    0
 Multiplicity           Mult            ....    1
 Number of Electrons    NEL             ....   80
 Basis Dimension        Dim             ....  248
 Nuclear Repulsion      ENuc            ....    579.9062743676 Eh

Convergence Acceleration:
 DIIS                   CNVDIIS         .... on
   Start iteration      DIISMaxIt       ....    12
   Startup error        DIISStart       ....  0.200000
   # of expansion vecs  DIISMaxEq       ....     5
   Bias factor          DIISBfac        ....   1.050
   Max. coefficient     DIISMaxC        ....  10.000
 Newton-Raphson         CNVNR           .... off
 SOSCF                  CNVSOSCF        .... on
   Start iteration      SOSCFMaxIt      ....   150
   Startup grad/error   SOSCFStart      ....  0.003300
 Level Shifting         CNVShift        .... on
   Level shift para.    LevelShift      ....    0.2500
   Turn off err/grad.   ShiftErr        ....    0.0010
 Zerner damping         CNVZerner       .... off
 Static damping         CNVDamp         .... on
   Fraction old density DampFac         ....    0.7000
   Max. Damping (<1)    DampMax         ....    0.9800
   Min. Damping (>=0)   DampMin         ....    0.0000
   Turn off err/grad.   DampErr         ....    0.1000
 Fernandez-Rico         CNVRico         .... off

SCF Procedure:
 Maximum # iterations   MaxIter         ....   125
 SCF integral mode      SCFMode         .... Direct
   Integral package                     .... LIBINT
 Reset frequency        DirectResetFreq ....    20
 Integral Threshold     Thresh          ....  2.500e-11 Eh
 Primitive CutOff       TCut            ....  2.500e-12 Eh

Convergence Tolerance:
 Convergence Check Mode ConvCheckMode   .... Total+1el-Energy
 Convergence forced     ConvForced      .... 0
 Energy Change          TolE            ....  1.000e-08 Eh
 1-El. energy change                    ....  1.000e-05 Eh
 Orbital Gradient       TolG            ....  1.000e-05
 Orbital Rotation angle TolX            ....  1.000e-05
 DIIS Error             TolErr          ....  5.000e-07


Diagonalization of the overlap matrix:
Smallest eigenvalue                        ... 7.174e-06
Time for diagonalization                   ...    0.018 sec
Threshold for overlap eigenvalues          ... 1.000e-08
Number of eigenvalues below threshold      ... 0
Time for construction of square roots      ...    0.026 sec
Total time needed                          ...    0.045 sec

--------------------------------
INITIAL GUESS: MINIMAL BASIS EHT
--------------------------------
The minimal basis has 63 functions
EHT matrix was diagonalized
Basis set overlap was calculated now projecting the orbitals
Using GuessMode=FMatrix for the initial guess
C*T matrix was formed
Effective Fockian was calculated
Effective Fockian was diagonalized
Initial density was built
                      ------------------
                      INITIAL GUESS DONE
                      ------------------
-------------------
DFT GRID GENERATION
-------------------

General Integration Accuracy     IntAcc      ...  4.670
Radial Grid Type                 RadialGrid  ... Gauss-Chebyshev
Angular Grid (max. acc.)         AngularGrid ... Lebedev-302
Angular grid pruning method      GridPruning ... 3 (G Style)
Weight generation scheme         WeightScheme... Becke
Basis function cutoff            BFCut       ...    1.0000e-11
Integration weight cutoff        WCut        ...    1.0000e-14
Grids for H and He will be reduced by one unit

# of grid points (after initial pruning)     ...  95484 (   0.0 sec)
# of grid points (after weights+screening)   ...  86879 (   0.1 sec)
nearest neighbour list constructed           ...    0.0 sec
Grid point re-assignment to atoms done       ...    0.0 sec
Grid point division into batches done        ...    0.5 sec
Reduced shell lists constructed in    0.6 sec

Total number of grid points                  ...    86879
Total number of batches                      ...     1367
Average number of points per batch           ...       63
Average number of grid points per atom       ...     4573
Average number of shells per batch           ...    44.72 (35.50%)
Average number of basis functions per batch  ...    93.10 (37.54%)
Average number of large shells per batch     ...    29.67 (66.35%)
Average number of large basis fcns per batch ...    64.02 (68.76%)
Maximum spatial batch extension              ...  16.65, 15.44, 14.60 au
Average spatial batch extension              ...   0.22,  0.22,  0.21 au

Time for grid setup =    0.736 sec

--------------
SCF ITERATIONS
--------------
ITER       Energy         Delta-E        Max-DP      RMS-DP      [F,P]     Damp
               ***  Starting incremental Fock matrix formation  ***
  0   -533.2206800821   0.000000000000 5.17916136  0.04055703  0.4755821 0.7000
  1   -533.8268441285  -0.606164046459 0.31384812  0.00496218  0.3333365 0.7000
  2   -534.1455648275  -0.318720699012 1.02082282  0.00935161  0.2318203 0.7000
                               ***Turning on DIIS***
  3   -534.3968272136  -0.251262386064 0.97748093  0.00862513  0.1611999 0.7000
  4   -534.5714360008  -0.174608787178 0.61686173  0.00581905  0.1122327 0.7000
  5   -534.6915538332  -0.120117832376 1.62734823  0.01510134  0.0786428 0.0000
  6   -534.9767223395  -0.285168506382 0.02077895  0.00035250  0.0127956 0.0000
  7   -534.9767161460   0.000006193517 0.01625544  0.00017145  0.0118836 0.0000
                      *** Initiating the SOSCF procedure ***
                           *** Shutting down DIIS ***
                      *** Re-Reading the Fockian *** 
                      *** Removing any level shift *** 
ITER      Energy       Delta-E        Grad      Rot      Max-DP    RMS-DP
  8   -534.97698519  -0.0002690400  0.000571  0.000571  0.002914  0.000059
               *** Restarting incremental Fock matrix formation ***
  9   -534.97699992  -0.0000147312  0.000274  0.001412  0.004233  0.000070
 10   -534.97699446   0.0000054599  0.000640  0.001430  0.004686  0.000050
 11   -534.97700155  -0.0000070963  0.000074  0.000379  0.003104  0.000024
 12   -534.97700086   0.0000006934  0.000154  0.000153  0.002082  0.000019
 13   -534.97700172  -0.0000008593  0.000026  0.000114  0.000339  0.000005
 14   -534.97700168   0.0000000414  0.000053  0.000078  0.000235  0.000003
 15   -534.97700173  -0.0000000544  0.000010  0.000048  0.000139  0.000002
 16   -534.97700173   0.0000000056  0.000021  0.000034  0.000145  0.000002
                  ***Gradient check signals convergence***
              ***Rediagonalizing the Fockian in SOSCF/NRSCF***

               *****************************************************
               *                     SUCCESS                       *
               *           SCF CONVERGED AFTER  17 CYCLES          *
               *****************************************************

Setting up the final grid:

General Integration Accuracy     IntAcc      ...  5.010
Radial Grid Type                 RadialGrid  ... Gauss-Chebyshev
Angular Grid (max. acc.)         AngularGrid ... Lebedev-434
Angular grid pruning method      GridPruning ... 3 (G Style)
Weight generation scheme         WeightScheme... Becke
Basis function cutoff            BFCut       ...    1.0000e-11
Integration weight cutoff        WCut        ...    1.0000e-14
Grids for H and He will be reduced by one unit

# of grid points (after initial pruning)     ... 171646 (   0.0 sec)
# of grid points (after weights+screening)   ... 155970 (   0.1 sec)
nearest neighbour list constructed           ...    0.0 sec
Grid point re-assignment to atoms done       ...    0.0 sec
Grid point division into batches done        ...    1.0 sec
Reduced shell lists constructed in    1.0 sec

Total number of grid points                  ...   155970
Total number of batches                      ...     2445
Average number of points per batch           ...       63
Average number of grid points per atom       ...     8209
Average number of shells per batch           ...    43.27 (34.34%)
Average number of basis functions per batch  ...    89.99 (36.29%)
Average number of large shells per batch     ...    28.65 (66.21%)
Average number of large basis fcns per batch ...    61.58 (68.43%)
Maximum spatial batch extension              ...  13.98, 15.47, 13.25 au
Average spatial batch extension              ...   0.18,  0.18,  0.17 au

Final grid set up in    1.7 sec
Final integration                            ... done (   0.4 sec)
Change in XC energy                          ...    -0.000000151
Integrated number of electrons               ...    80.000022225
Previous integrated no of electrons          ...    80.000218872

----------------
TOTAL SCF ENERGY
----------------

Total Energy       :         -534.97700188 Eh          -14557.46431 eV

Components:
Nuclear Repulsion  :          579.90627437 Eh           15780.05197 eV
Electronic Energy  :        -1114.88327625 Eh          -30337.51628 eV
One Electron Energy:        -1878.18340845 Eh          -51107.96882 eV
Two Electron Energy:          763.30013220 Eh           20770.45255 eV

Virial components:
Potential Energy   :        -1068.00657491 Eh          -29061.93638 eV
Kinetic Energy     :          533.02957303 Eh           14504.47208 eV
Virial Ratio       :            2.00365351


DFT components:
N(Alpha)           :       40.000011112476 electrons
N(Beta)            :       40.000011112476 electrons
N(Total)           :       80.000022224951 electrons
E(XC)              :      -71.758476494912 Eh       
DFET-embed. en.    :        0.000000000000 Eh       

---------------
SCF CONVERGENCE
---------------

  Last Energy change         ...   -3.4757e-09  Tolerance :   1.0000e-08
  Last MAX-Density change    ...    2.2510e-04  Tolerance :   1.0000e-07
  Last RMS-Density change    ...    2.5892e-06  Tolerance :   5.0000e-09
  Last Orbital Gradient      ...    9.9715e-07  Tolerance :   1.0000e-05
  Last Orbital Rotation      ...    4.7303e-06  Tolerance :   1.0000e-05

             **** THE GBW FILE WAS UPDATED (orca.gbw) ****
             **** DENSITY FILE WAS UPDATED (orca.scfp) ****
             **** ENERGY FILE WAS UPDATED (orca.en.tmp) ****
             **** THE GBW FILE WAS UPDATED (orca.gbw) ****
             **** DENSITY FILE WAS UPDATED (orca.scfp) ****
----------------
ORBITAL ENERGIES
----------------

  NO   OCC          E(Eh)            E(eV) 
   0   2.0000     -18.799459      -511.5593 
   1   2.0000     -18.794926      -511.4359 
   2   2.0000     -18.732986      -509.7505 
   3   2.0000      -9.977867      -271.5116 
   4   2.0000      -9.977049      -271.4893 
   5   2.0000      -9.976058      -271.4623 
   6   2.0000      -9.960091      -271.0279 
   7   2.0000      -9.913229      -269.7527 
   8   2.0000      -9.907903      -269.6078 
   9   2.0000      -9.904985      -269.5283 
  10   2.0000      -9.899579      -269.3813 
  11   2.0000      -1.008851       -27.4522 
  12   2.0000      -1.002690       -27.2846 
  13   2.0000      -0.956811       -26.0362 
  14   2.0000      -0.800426       -21.7807 
  15   2.0000      -0.720876       -19.6160 
  16   2.0000      -0.698852       -19.0167 
  17   2.0000      -0.667840       -18.1729 
  18   2.0000      -0.599678       -16.3181 
  19   2.0000      -0.575664       -15.6646 
  20   2.0000      -0.540485       -14.7074 
  21   2.0000      -0.518614       -14.1122 
  22   2.0000      -0.479764       -13.0550 
  23   2.0000      -0.460405       -12.5283 
  24   2.0000      -0.443372       -12.0648 
  25   2.0000      -0.438833       -11.9413 
  26   2.0000      -0.405930       -11.0459 
  27   2.0000      -0.397336       -10.8121 
  28   2.0000      -0.390089       -10.6149 
  29   2.0000      -0.381343       -10.3769 
  30   2.0000      -0.371012       -10.0958 
  31   2.0000      -0.360072        -9.7980 
  32   2.0000      -0.348767        -9.4904 
  33   2.0000      -0.337843        -9.1932 
  34   2.0000      -0.332473        -9.0471 
  35   2.0000      -0.305538        -8.3141 
  36   2.0000      -0.285663        -7.7733 
  37   2.0000      -0.220795        -6.0081 
  38   2.0000      -0.213936        -5.8215 
  39   2.0000      -0.213547        -5.8109 
  40   0.0000      -0.090727        -2.4688 
  41   0.0000      -0.038016        -1.0345 
  42   0.0000       0.000667         0.0182 
  43   0.0000       0.006679         0.1817 
  44   0.0000       0.024131         0.6566 
  45   0.0000       0.039089         1.0637 
  46   0.0000       0.067379         1.8335 
  47   0.0000       0.074751         2.0341 
  48   0.0000       0.085611         2.3296 
  49   0.0000       0.092136         2.5071 
  50   0.0000       0.092721         2.5231 
  51   0.0000       0.100236         2.7276 
  52   0.0000       0.117421         3.1952 
  53   0.0000       0.124105         3.3771 
  54   0.0000       0.146072         3.9748 
  55   0.0000       0.156720         4.2646 
  56   0.0000       0.164688         4.4814 
  57   0.0000       0.168531         4.5860 
  58   0.0000       0.171809         4.6752 
  59   0.0000       0.186313         5.0698 
  60   0.0000       0.190284         5.1779 
  61   0.0000       0.199866         5.4386 
  62   0.0000       0.208750         5.6804 
  63   0.0000       0.217124         5.9082 
  64   0.0000       0.220491         5.9999 
  65   0.0000       0.232303         6.3213 
  66   0.0000       0.244438         6.6515 
  67   0.0000       0.259385         7.0582 
  68   0.0000       0.274646         7.4735 
  69   0.0000       0.278248         7.5715 
  70   0.0000       0.284010         7.7283 
  71   0.0000       0.290739         7.9114 
  72   0.0000       0.290946         7.9170 
  73   0.0000       0.295428         8.0390 
  74   0.0000       0.303816         8.2673 
  75   0.0000       0.315049         8.5729 
  76   0.0000       0.332743         9.0544 
  77   0.0000       0.337956         9.1962 
  78   0.0000       0.339365         9.2346 
  79   0.0000       0.348459         9.4820 
  80   0.0000       0.354270         9.6402 
  81   0.0000       0.362627         9.8676 
  82   0.0000       0.366651         9.9771 
  83   0.0000       0.376284        10.2392 
  84   0.0000       0.383913        10.4468 
  85   0.0000       0.393472        10.7069 
  86   0.0000       0.399539        10.8720 
  87   0.0000       0.410644        11.1742 
  88   0.0000       0.412526        11.2254 
  89   0.0000       0.419729        11.4214 
  90   0.0000       0.431222        11.7342 
  91   0.0000       0.438675        11.9370 
  92   0.0000       0.439010        11.9461 
  93   0.0000       0.441229        12.0065 
  94   0.0000       0.460533        12.5318 
  95   0.0000       0.461195        12.5498 
  96   0.0000       0.470419        12.8008 
  97   0.0000       0.488167        13.2837 
  98   0.0000       0.492768        13.4089 
  99   0.0000       0.533608        14.5202 
 100   0.0000       0.545397        14.8410 
 101   0.0000       0.550023        14.9669 
 102   0.0000       0.550848        14.9893 
 103   0.0000       0.553869        15.0715 
 104   0.0000       0.573569        15.6076 
 105   0.0000       0.579084        15.7577 
 106   0.0000       0.599060        16.3012 
 107   0.0000       0.626541        17.0490 
 108   0.0000       0.628481        17.1018 
 109   0.0000       0.639880        17.4120 
 110   0.0000       0.649781        17.6815 
 111   0.0000       0.650311        17.6959 
 112   0.0000       0.663282        18.0488 
 113   0.0000       0.677891        18.4463 
 114   0.0000       0.683677        18.6038 
 115   0.0000       0.711047        19.3486 
 116   0.0000       0.719979        19.5916 
 117   0.0000       0.737279        20.0624 
 118   0.0000       0.781059        21.2537 
 119   0.0000       0.786677        21.4066 
 120   0.0000       0.793567        21.5941 
 121   0.0000       0.806660        21.9503 
 122   0.0000       0.825897        22.4738 
 123   0.0000       0.844315        22.9750 
 124   0.0000       0.870749        23.6943 
 125   0.0000       0.887867        24.1601 
 126   0.0000       0.903957        24.5979 
 127   0.0000       0.933944        25.4139 
 128   0.0000       0.992701        27.0128 
 129   0.0000       1.044343        28.4180 
 130   0.0000       1.136193        30.9174 
 131   0.0000       1.191533        32.4233 
 132   0.0000       1.255510        34.1642 
 133   0.0000       1.277143        34.7528 
 134   0.0000       1.315694        35.8018 
 135   0.0000       1.319571        35.9074 
 136   0.0000       1.336574        36.3700 
 137   0.0000       1.343511        36.5588 
 138   0.0000       1.352697        36.8088 
 139   0.0000       1.367266        37.2052 
 140   0.0000       1.384165        37.6650 
 141   0.0000       1.392456        37.8907 
 142   0.0000       1.404061        38.2064 
 143   0.0000       1.424894        38.7733 
 144   0.0000       1.434840        39.0440 
 145   0.0000       1.439662        39.1752 
 146   0.0000       1.454091        39.5678 
 147   0.0000       1.463235        39.8167 
 148   0.0000       1.485706        40.4281 
 149   0.0000       1.491263        40.5793 
 150   0.0000       1.506010        40.9806 
 151   0.0000       1.524289        41.4780 
 152   0.0000       1.527736        41.5718 
 153   0.0000       1.531428        41.6723 
 154   0.0000       1.535766        41.7903 
 155   0.0000       1.536936        41.8221 
 156   0.0000       1.547719        42.1156 
 157   0.0000       1.548532        42.1377 
 158   0.0000       1.579040        42.9679 
 159   0.0000       1.592832        43.3432 
 160   0.0000       1.634934        44.4888 
 161   0.0000       1.647147        44.8212 
 162   0.0000       1.652888        44.9774 
 163   0.0000       1.654914        45.0325 
 164   0.0000       1.678383        45.6711 
 165   0.0000       1.680429        45.7268 
 166   0.0000       1.707230        46.4561 
 167   0.0000       1.717136        46.7257 
 168   0.0000       1.728489        47.0346 
 169   0.0000       1.748951        47.5914 
 170   0.0000       1.758190        47.8428 
 171   0.0000       1.799810        48.9753 
 172   0.0000       1.842597        50.1396 
 173   0.0000       1.870550        50.9003 
 174   0.0000       1.913037        52.0564 
 175   0.0000       1.919233        52.2250 
 176   0.0000       1.968212        53.5578 
 177   0.0000       2.002771        54.4982 
 178   0.0000       2.028904        55.2093 
 179   0.0000       2.045163        55.6517 
 180   0.0000       2.068829        56.2957 
 181   0.0000       2.074464        56.4490 
 182   0.0000       2.114628        57.5419 
 183   0.0000       2.149398        58.4881 
 184   0.0000       2.151187        58.5368 
 185   0.0000       2.172616        59.1199 
 186   0.0000       2.186299        59.4922 
 187   0.0000       2.204713        59.9933 
 188   0.0000       2.214215        60.2519 
 189   0.0000       2.235163        60.8219 
 190   0.0000       2.246736        61.1368 
 191   0.0000       2.256181        61.3938 
 192   0.0000       2.274896        61.9031 
 193   0.0000       2.288373        62.2698 
 194   0.0000       2.299953        62.5849 
 195   0.0000       2.303151        62.6719 
 196   0.0000       2.329591        63.3914 
 197   0.0000       2.339744        63.6677 
 198   0.0000       2.380090        64.7655 
 199   0.0000       2.390892        65.0595 
 200   0.0000       2.420098        65.8542 
 201   0.0000       2.454724        66.7964 
 202   0.0000       2.477302        67.4108 
 203   0.0000       2.491540        67.7983 
 204   0.0000       2.542818        69.1936 
 205   0.0000       2.568795        69.9005 
 206   0.0000       2.570893        69.9576 
 207   0.0000       2.625438        71.4418 
 208   0.0000       2.646781        72.0226 
 209   0.0000       2.675482        72.8036 
 210   0.0000       2.689572        73.1870 
 211   0.0000       2.705460        73.6193 
 212   0.0000       2.707868        73.6848 
 213   0.0000       2.728176        74.2374 
 214   0.0000       2.732277        74.3490 
 215   0.0000       2.779187        75.6255 
 216   0.0000       2.809566        76.4522 
 217   0.0000       2.809717        76.4563 
 218   0.0000       2.856273        77.7231 
 219   0.0000       2.877785        78.3085 
 220   0.0000       2.957265        80.4713 
 221   0.0000       3.016518        82.0836 
 222   0.0000       3.027843        82.3918 
 223   0.0000       3.058564        83.2278 
 224   0.0000       3.075899        83.6995 
 225   0.0000       3.107044        84.5470 
 226   0.0000       3.126617        85.0796 
 227   0.0000       3.180665        86.5503 
 228   0.0000       3.226682        87.8025 
 229   0.0000       3.248556        88.3977 
 230   0.0000       3.457022        94.0704 
 231   0.0000       3.475850        94.5827 
 232   0.0000       3.497953        95.1841 
 233   0.0000       3.641182        99.0816 
 234   0.0000       3.822920       104.0269 
 235   0.0000       3.881219       105.6133 
 236   0.0000       3.946190       107.3813 
 237   0.0000      21.161026       575.8208 
 238   0.0000      21.649593       589.1154 
 239   0.0000      21.677732       589.8811 
 240   0.0000      21.772103       592.4490 
 241   0.0000      21.932376       596.8103 
 242   0.0000      22.006783       598.8350 
 243   0.0000      22.047762       599.9501 
 244   0.0000      22.133777       602.2907 
 245   0.0000      43.324313      1178.9145 
 246   0.0000      43.342564      1179.4111 
 247   0.0000      43.415246      1181.3889 

                    ********************************
                    * MULLIKEN POPULATION ANALYSIS *
                    ********************************

-----------------------
MULLIKEN ATOMIC CHARGES
-----------------------
   0 O :   -0.322393
   1 C :   -0.076395
   2 C :    0.001717
   3 C :   -0.134360
   4 C :    0.350202
   5 C :   -0.274829
   6 C :   -0.243725
   7 C :    0.218247
   8 O :   -0.554314
   9 O :   -0.206505
  10 C :   -0.448053
  11 H :    0.063621
  12 H :    0.212624
  13 H :    0.189707
  14 H :    0.212204
  15 H :    0.430252
  16 H :    0.201974
  17 H :    0.190001
  18 H :    0.190024
Sum of atomic charges:   -0.0000000

--------------------------------
MULLIKEN REDUCED ORBITAL CHARGES
--------------------------------
  0 O s       :     3.853494  s :     3.853494
      pz      :     1.357834  p :     4.440070
      px      :     1.493631
      py      :     1.588605
      dz2     :     0.012620  d :     0.028829
      dxz     :     0.007052
      dyz     :     0.005310
      dx2y2   :     0.002088
      dxy     :     0.001758
  1 C s       :     3.285841  s :     3.285841
      pz      :     0.879334  p :     2.706090
      px      :     0.901162
      py      :     0.925594
      dz2     :     0.024746  d :     0.084465
      dxz     :     0.020501
      dyz     :     0.026121
      dx2y2   :     0.003333
      dxy     :     0.009764
  2 C s       :     3.192363  s :     3.192363
      pz      :     0.751628  p :     2.761408
      px      :     1.000371
      py      :     1.009409
      dz2     :     0.011442  d :     0.044511
      dxz     :     0.010095
      dyz     :     0.010705
      dx2y2   :     0.005685
      dxy     :     0.006584
  3 C s       :     3.128996  s :     3.128996
      pz      :     1.060230  p :     2.962507
      px      :     0.946592
      py      :     0.955685
      dz2     :     0.011462  d :     0.042857
      dxz     :     0.008945
      dyz     :     0.007642
      dx2y2   :     0.007818
      dxy     :     0.006991
  4 C s       :     3.115809  s :     3.115809
      pz      :     0.769402  p :     2.460412
      px      :     0.833815
      py      :     0.857195
      dz2     :     0.015227  d :     0.073577
      dxz     :     0.014964
      dyz     :     0.015685
      dx2y2   :     0.016551
      dxy     :     0.011150
  5 C s       :     3.043926  s :     3.043926
      pz      :     1.038451  p :     3.193595
      px      :     1.070392
      py      :     1.084752
      dz2     :     0.009683  d :     0.037308
      dxz     :     0.007887
      dyz     :     0.007716
      dx2y2   :     0.005462
      dxy     :     0.006559
  6 C s       :     3.029121  s :     3.029121
      pz      :     0.948392  p :     3.175059
      px      :     1.100882
      py      :     1.125785
      dz2     :     0.012308  d :     0.039544
      dxz     :     0.008525
      dyz     :     0.008176
      dx2y2   :     0.002825
      dxy     :     0.007710
  7 C s       :     3.166264  s :     3.166264
      pz      :     0.741043  p :     2.540725
      px      :     0.906321
      py      :     0.893362
      dz2     :     0.019154  d :     0.074764
      dxz     :     0.016829
      dyz     :     0.018143
      dx2y2   :     0.011478
      dxy     :     0.009159
  8 O s       :     3.783907  s :     3.783907
      pz      :     1.616903  p :     4.714723
      px      :     1.586758
      py      :     1.511062
      dz2     :     0.015498  d :     0.055684
      dxz     :     0.013033
      dyz     :     0.013810
      dx2y2   :     0.006447
      dxy     :     0.006896
  9 O s       :     3.738977  s :     3.738977
      pz      :     1.501533  p :     4.446975
      px      :     1.532490
      py      :     1.412952
      dz2     :     0.013298  d :     0.020553
      dxz     :     0.002889
      dyz     :     0.009559
      dx2y2   :    -0.006773
      dxy     :     0.001580
 10 C s       :     3.327652  s :     3.327652
      pz      :     1.191581  p :     3.064374
      px      :     0.938832
      py      :     0.933960
      dz2     :     0.009038  d :     0.056026
      dxz     :     0.005625
      dyz     :     0.013874
      dx2y2   :     0.013720
      dxy     :     0.013769
 11 H s       :     0.936379  s :     0.936379
 12 H s       :     0.787376  s :     0.787376
 13 H s       :     0.810293  s :     0.810293
 14 H s       :     0.787796  s :     0.787796
 15 H s       :     0.569748  s :     0.569748
 16 H s       :     0.798026  s :     0.798026
 17 H s       :     0.809999  s :     0.809999
 18 H s       :     0.809976  s :     0.809976


                     *******************************
                     * LOEWDIN POPULATION ANALYSIS *
                     *******************************

----------------------
LOEWDIN ATOMIC CHARGES
----------------------
   0 O :   -0.485226
   1 C :    0.207083
   2 C :   -0.080926
   3 C :   -0.079085
   4 C :    0.230687
   5 C :   -0.085565
   6 C :   -0.168768
   7 C :    0.227384
   8 O :   -0.617534
   9 O :   -0.715706
  10 C :   -0.055428
  11 H :    0.143508
  12 H :    0.193232
  13 H :    0.200678
  14 H :    0.179650
  15 H :    0.364031
  16 H :    0.189817
  17 H :    0.176113
  18 H :    0.176053

-------------------------------
LOEWDIN REDUCED ORBITAL CHARGES
-------------------------------
  0 O s       :     3.566308  s :     3.566308
      pz      :     1.519189  p :     4.653464
      px      :     1.535972
      py      :     1.598302
      dz2     :     0.088819  d :     0.265453
      dxz     :     0.076173
      dyz     :     0.067340
      dx2y2   :     0.009274
      dxy     :     0.023847
  1 C s       :     2.848515  s :     2.848515
      pz      :     0.982180  p :     2.763935
      px      :     0.881773
      py      :     0.899981
      dz2     :     0.057597  d :     0.180467
      dxz     :     0.045619
      dyz     :     0.054758
      dx2y2   :     0.006154
      dxy     :     0.016340
  2 C s       :     2.836635  s :     2.836635
      pz      :     1.023989  p :     3.151688
      px      :     1.061793
      py      :     1.065906
      dz2     :     0.024551  d :     0.092602
      dxz     :     0.020759
      dyz     :     0.022461
      dx2y2   :     0.010446
      dxy     :     0.014384
  3 C s       :     2.892030  s :     2.892030
      pz      :     1.092559  p :     3.103094
      px      :     1.001916
      py      :     1.008619
      dz2     :     0.021430  d :     0.083960
      dxz     :     0.016692
      dyz     :     0.016296
      dx2y2   :     0.015109
      dxy     :     0.014433
  4 C s       :     2.778978  s :     2.778978
      pz      :     1.052421  p :     2.830550
      px      :     0.881619
      py      :     0.896511
      dz2     :     0.032323  d :     0.159785
      dxz     :     0.033122
      dyz     :     0.034140
      dx2y2   :     0.031841
      dxy     :     0.028360
  5 C s       :     2.865774  s :     2.865774
      pz      :     1.068410  p :     3.147390
      px      :     1.044197
      py      :     1.034783
      dz2     :     0.018596  d :     0.072401
      dxz     :     0.014732
      dyz     :     0.016282
      dx2y2   :     0.009604
      dxy     :     0.013186
  6 C s       :     2.881207  s :     2.881207
      pz      :     1.052873  p :     3.209701
      px      :     1.074458
      py      :     1.082371
      dz2     :     0.025447  d :     0.077859
      dxz     :     0.017642
      dyz     :     0.017843
      dx2y2   :     0.004760
      dxy     :     0.012168
  7 C s       :     2.777233  s :     2.777233
      pz      :     0.955298  p :     2.834021
      px      :     0.957738
      py      :     0.920985
      dz2     :     0.044962  d :     0.161361
      dxz     :     0.034202
      dyz     :     0.040384
      dx2y2   :     0.022101
      dxy     :     0.019712
  8 O s       :     3.521605  s :     3.521605
      pz      :     1.603098  p :     4.779088
      px      :     1.624977
      py      :     1.551013
      dz2     :     0.049316  d :     0.316841
      dxz     :     0.056109
      dyz     :     0.070685
      dx2y2   :     0.074900
      dxy     :     0.065831
  9 O s       :     3.459807  s :     3.459807
      pz      :     1.591500  p :     4.698571
      px      :     1.596015
      py      :     1.511056
      dz2     :     0.105888  d :     0.557328
      dxz     :     0.093393
      dyz     :     0.122644
      dx2y2   :     0.117896
      dxy     :     0.117506
 10 C s       :     2.907871  s :     2.907871
      pz      :     1.118248  p :     3.042669
      px      :     0.966721
      py      :     0.957700
      dz2     :     0.015516  d :     0.104888
      dxz     :     0.010119
      dyz     :     0.024955
      dx2y2   :     0.026253
      dxy     :     0.028045
 11 H s       :     0.856492  s :     0.856492
 12 H s       :     0.806768  s :     0.806768
 13 H s       :     0.799322  s :     0.799322
 14 H s       :     0.820350  s :     0.820350
 15 H s       :     0.635969  s :     0.635969
 16 H s       :     0.810183  s :     0.810183
 17 H s       :     0.823887  s :     0.823887
 18 H s       :     0.823947  s :     0.823947


                      *****************************
                      * MAYER POPULATION ANALYSIS *
                      *****************************

  NA   - Mulliken gross atomic population
  ZA   - Total nuclear charge
  QA   - Mulliken gross atomic charge
  VA   - Mayer's total valence
  BVA  - Mayer's bonded valence
  FA   - Mayer's free valence

  ATOM       NA         ZA         QA         VA         BVA        FA
  0 O      8.3224     8.0000    -0.3224     2.1679     2.1679    -0.0000
  1 C      6.0764     6.0000    -0.0764     4.0470     4.0470     0.0000
  2 C      5.9983     6.0000     0.0017     3.1680     3.1680    -0.0000
  3 C      6.1344     6.0000    -0.1344     3.9485     3.9485     0.0000
  4 C      5.6498     6.0000     0.3502     3.7030     3.7030    -0.0000
  5 C      6.2748     6.0000    -0.2748     3.8527     3.8527    -0.0000
  6 C      6.2437     6.0000    -0.2437     3.7527     3.7527     0.0000
  7 C      5.7818     6.0000     0.2182     4.0158     4.0158    -0.0000
  8 O      8.5543     8.0000    -0.5543     2.0117     2.0117    -0.0000
  9 O      8.2065     8.0000    -0.2065     2.0489     2.0489     0.0000
 10 C      6.4481     6.0000    -0.4481     3.7525     3.7525    -0.0000
 11 H      0.9364     1.0000     0.0636     0.9403     0.9403     0.0000
 12 H      0.7874     1.0000     0.2126     0.9412     0.9412     0.0000
 13 H      0.8103     1.0000     0.1897     0.9409     0.9409    -0.0000
 14 H      0.7878     1.0000     0.2122     0.9256     0.9256     0.0000
 15 H      0.5697     1.0000     0.4303     0.7972     0.7972    -0.0000
 16 H      0.7980     1.0000     0.2020     0.9464     0.9464     0.0000
 17 H      0.8100     1.0000     0.1900     0.9331     0.9331    -0.0000
 18 H      0.8100     1.0000     0.1900     0.9330     0.9330    -0.0000

  Mayer bond orders larger than 0.100000
B(  0-O ,  1-C ) :   2.0452 B(  0-O ,  2-C ) :  -0.1379 B(  1-C ,  2-C ) :   0.9728 
B(  1-C , 11-H ) :   0.9516 B(  2-C ,  3-C ) :   1.2838 B(  2-C ,  4-C ) :   1.0779 
B(  2-C , 11-H ) :  -0.1031 B(  3-C ,  6-C ) :   1.5505 B(  3-C , 12-H ) :   0.8914 
B(  4-C ,  5-C ) :   1.4145 B(  4-C ,  7-C ) :   0.1317 B(  4-C ,  8-O ) :   1.1083 
B(  5-C ,  7-C ) :   1.4110 B(  5-C , 13-H ) :   0.9013 B(  6-C ,  7-C ) :   1.3040 
B(  6-C , 14-H ) :   0.8389 B(  7-C ,  9-O ) :   1.1117 B(  8-O , 15-H ) :   0.7366 
B(  9-O , 10-C ) :   0.8399 B( 10-C , 16-H ) :   0.9564 B( 10-C , 17-H ) :   0.9480 
B( 10-C , 18-H ) :   0.9483 

-------
TIMINGS
-------

Total SCF time: 0 days 0 hours 0 min 16 sec 

Total time                  ....      16.312 sec
Sum of individual times     ....      15.159 sec  ( 92.9%)

Fock matrix formation       ....      11.930 sec  ( 73.1%)
  Split-RI-J                ....       4.550 sec  ( 38.1% of F)
  XC integration            ....       5.480 sec  ( 45.9% of F)
    Basis function eval.    ....       0.567 sec  ( 10.3% of XC)
    Density eval.           ....       0.384 sec  (  7.0% of XC)
    XC-Functional eval.     ....       0.308 sec  (  5.6% of XC)
    XC-Potential eval.      ....       0.555 sec  ( 10.1% of XC)
Diagonalization             ....       0.145 sec  (  0.9%)
Density matrix formation    ....       0.083 sec  (  0.5%)
Population analysis         ....       0.048 sec  (  0.3%)
Initial guess               ....       0.067 sec  (  0.4%)
Orbital Transformation      ....       0.000 sec  (  0.0%)
Orbital Orthonormalization  ....       0.000 sec  (  0.0%)
DIIS solution               ....       0.325 sec  (  2.0%)
SOSCF solution              ....       0.134 sec  (  0.8%)
Grid generation             ....       2.427 sec  ( 14.9%)


-------------------------------------------------------------------------------
                          DFT DISPERSION CORRECTION                            
                                                                               
                              DFTD3 V3.1  Rev 1                                
                          USING Becke-Johnson damping                          
-------------------------------------------------------------------------------
The B97-3c composite method is recognized
Using three-body term ABC
Active option DFTDOPT                   ...         4   

molecular C6(AA) [au] = 3993.575803 


            DFT-D V3
 parameters
 s6 scaling factor         :     1.0000 
 a1 scaling factor         :     0.3700 
 s8 scaling factor         :     1.5000 
 a2 scaling factor         :     4.1000 
 Damping factor alpha9(ATM):    16.0000 
 ad hoc parameters k1-k3   :    16.0000     1.3333    -4.0000 

 Edisp/kcal,au: -28.211000773007  -0.044957086594 
 E6   /kcal   : -14.088065536 
 E8   /kcal   : -14.123019125 
 E6(ABC)      :   0.000083888 
 % E8         :  50.062098962 
 % E6(ABC)    :  -0.000297359 

-------------------------   ----------------
Dispersion correction           -0.044957087
-------------------------   ----------------

------------------   -----------------
SRB correction            -0.060726904
------------------   -----------------

-------------------------   --------------------
FINAL SINGLE POINT ENERGY      -535.082685872334
-------------------------   --------------------


                            ***************************************
                            *     ORCA property calculations      *
                            ***************************************

                                    ---------------------
                                    Active property flags
                                    ---------------------
   (+) Dipole Moment


------------------------------------------------------------------------------
                       ORCA ELECTRIC PROPERTIES CALCULATION
------------------------------------------------------------------------------

Dipole Moment Calculation                       ... on
Quadrupole Moment Calculation                   ... off
Polarizability Calculation                      ... off
GBWName                                         ... orca.gbw
Electron density file                           ... orca.scfp
The origin for moment calculation is the CENTER OF MASS  = ( 0.710644, -7.197180  4.109284)

-------------
DIPOLE MOMENT
-------------
                                X             Y             Z
Electronic contribution:      3.75643       4.91228      -2.54074
Nuclear contribution   :     -4.15886      -5.70558       3.55165
                        -----------------------------------------
Total Dipole Moment    :     -0.40243      -0.79330       1.01091
                        -----------------------------------------
Magnitude (a.u.)       :      1.34655
Magnitude (Debye)      :      3.42267



--------------------
Rotational spectrum 
--------------------
 
Rotational constants in cm-1:     0.076198     0.023068     0.017767 
Rotational constants in MHz :  2284.359651   691.558196   532.641742 

 Dipole components along the rotational axes: 
x,y,z [a.u.] :     1.341016     0.121943    -0.003664 
x,y,z [Debye]:     3.408593     0.309955    -0.009313 

 


           ************************************************************
           *        Program running with 24 parallel MPI-processes    *
           *              working on a common directory               *
           ************************************************************

-------------------------------------------------------------------------------
                               ORCA SCF HESSIAN
-------------------------------------------------------------------------------

Hessian of the Kohn-Sham DFT energy:
Kohn-Sham wavefunction type                      ... RKS
Hartree-Fock exchange scaling                    ...    0.000
Number of operators                              ...    1
Number of atoms                                  ...   19
Basis set dimensions                             ...  248
Integral neglect threshold                       ... 2.5e-11
Integral primitive cutoff                        ... 2.5e-12

Setting up DFT Hessian calculations              ... 
Electron density on the grid                     ... found on disk
Electron density on the final grid               ... found on disk
Building xc-kernel on the grid                   ... done   (      0.3 sec)
Building xc-kernel on the final grid             ... done   (      0.4 sec)
                                                     done   (      1.4 sec)

Nuclear repulsion Hessian                        ... done   (      0.0 sec)

----------------------------------------------
Forming right-hand sides of CP-SCF equations     ...
----------------------------------------------
One electron integral derivatives                ... done   (      0.2 sec)
Transforming the overlap derivative matrices     ... done   (      0.1 sec)
Making the Q(x) pseudodensities                  ... done   (      0.1 sec)
Adding the E*S(x)*S(y) terms to the Hessian      ... done   (      0.1 sec)
Calculating energy weighted overlap derivatives  ... done   (      0.1 sec)
Two electron integral derivatives (RI)           ... done   (      0.8 sec)
Exchange-correlation integral derivatives        ... done   (      8.7 sec)
tr(F(y)Q(x)) contribution to the Hessian         ... done   (      0.0 sec)
Response fock operator R(S(x)) (RI)              ... done   (      2.3 sec)
XC Response fock operator R(S(x))                ... done   (      3.7 sec)
tr(F(y)S(x)) contribution to the Hessian         ... done   (      0.0 sec)
Transforming and finalizing RHSs                 ... done   (      0.0 sec)

----------------------------------------------
Solving the CP-SCF equations (RI)                ...
----------------------------------------------
     CP-SCF ITERATION   0: 
     CP-SCF ITERATION   1:      0.005163886534
     CP-SCF ITERATION   2:      0.000481915506
     CP-SCF ITERATION   3:      0.000112144831
     CP-SCF ITERATION   4:      0.000004469036
     CP-SCF ITERATION   5:      0.000001000141
     CP-SCF ITERATION   6:      0.000000132595
     CP-SCF ITERATION   7:      0.000000010446
     CP-SCF ITERATION   8:      0.000000002272

                                                 ... done   (     51.3 sec)
Forming perturbed density Hessian contributions  ... done   (      0.1 sec)
Making the perturbed densities                   ... done   (      0.0 sec)
2nd integral derivative contribs (RI)            ... done   (      1.5 sec)
Exchange-correlation Hessian                     ... done   (      5.7 sec)
Dispersion correction in the Hessian             ... done   (      0.2 sec)
SRB correction in the Hessian                    ... done   (      0.0 sec)
Dipol derivatives                                ... done   (      0.7 sec)

Total SCF Hessian time: 0 days 0 hours 1 min 19 sec 

Writing the Hessian file to the disk             ... done


Maximum memory used throughout the entire calculation: 219.4 MB

-----------------------
VIBRATIONAL FREQUENCIES
-----------------------

Scaling factor for frequencies =  1.000000000  (already applied!)

   0:         0.00 cm**-1
   1:         0.00 cm**-1
   2:         0.00 cm**-1
   3:         0.00 cm**-1
   4:         0.00 cm**-1
   5:         0.00 cm**-1
   6:        76.84 cm**-1
   7:       102.22 cm**-1
   8:       160.37 cm**-1
   9:       184.24 cm**-1
  10:       214.47 cm**-1
  11:       236.86 cm**-1
  12:       266.31 cm**-1
  13:       300.41 cm**-1
  14:       364.73 cm**-1
  15:       365.73 cm**-1
  16:       379.52 cm**-1
  17:       456.70 cm**-1
  18:       531.55 cm**-1
  19:       579.24 cm**-1
  20:       622.69 cm**-1
  21:       632.83 cm**-1
  22:       640.74 cm**-1
  23:       735.58 cm**-1
  24:       772.41 cm**-1
  25:       818.73 cm**-1
  26:       827.27 cm**-1
  27:       935.78 cm**-1
  28:       954.57 cm**-1
  29:       974.25 cm**-1
  30:      1043.02 cm**-1
  31:      1129.19 cm**-1
  32:      1161.99 cm**-1
  33:      1168.44 cm**-1
  34:      1195.12 cm**-1
  35:      1225.12 cm**-1
  36:      1247.65 cm**-1
  37:      1295.80 cm**-1
  38:      1319.47 cm**-1
  39:      1369.80 cm**-1
  40:      1451.99 cm**-1
  41:      1471.20 cm**-1
  42:      1482.73 cm**-1
  43:      1498.24 cm**-1
  44:      1506.82 cm**-1
  45:      1527.35 cm**-1
  46:      1583.23 cm**-1
  47:      1648.58 cm**-1
  48:      1718.09 cm**-1
  49:      2717.50 cm**-1
  50:      2983.91 cm**-1
  51:      3048.55 cm**-1
  52:      3113.69 cm**-1
  53:      3152.24 cm**-1
  54:      3169.43 cm**-1
  55:      3176.07 cm**-1
  56:      3719.86 cm**-1


------------
NORMAL MODES
------------

These modes are the Cartesian displacements weighted by the diagonal matrix
M(i,i)=1/sqrt(m[i]) where m[i] is the mass of the displaced atom
Thus, these vectors are normalized but *not* orthogonal

                  0          1          2          3          4          5    
      0       0.000000   0.000000   0.000000   0.000000   0.000000   0.000000
      1       0.000000   0.000000   0.000000   0.000000   0.000000   0.000000
      2       0.000000   0.000000   0.000000   0.000000   0.000000   0.000000
      3       0.000000   0.000000   0.000000   0.000000   0.000000   0.000000
      4       0.000000   0.000000   0.000000   0.000000   0.000000   0.000000
      5       0.000000   0.000000   0.000000   0.000000   0.000000   0.000000
      6       0.000000   0.000000   0.000000   0.000000   0.000000   0.000000
      7       0.000000   0.000000   0.000000   0.000000   0.000000   0.000000
      8       0.000000   0.000000   0.000000   0.000000   0.000000   0.000000
      9       0.000000   0.000000   0.000000   0.000000   0.000000   0.000000
     10       0.000000   0.000000   0.000000   0.000000   0.000000   0.000000
     11       0.000000   0.000000   0.000000   0.000000   0.000000   0.000000
     12       0.000000   0.000000   0.000000   0.000000   0.000000   0.000000
     13       0.000000   0.000000   0.000000   0.000000   0.000000   0.000000
     14       0.000000   0.000000   0.000000   0.000000   0.000000   0.000000
     15       0.000000   0.000000   0.000000   0.000000   0.000000   0.000000
     16       0.000000   0.000000   0.000000   0.000000   0.000000   0.000000
     17       0.000000   0.000000   0.000000   0.000000   0.000000   0.000000
     18       0.000000   0.000000   0.000000   0.000000   0.000000   0.000000
     19       0.000000   0.000000   0.000000   0.000000   0.000000   0.000000
     20       0.000000   0.000000   0.000000   0.000000   0.000000   0.000000
     21       0.000000   0.000000   0.000000   0.000000   0.000000   0.000000
     22       0.000000   0.000000   0.000000   0.000000   0.000000   0.000000
     23       0.000000   0.000000   0.000000   0.000000   0.000000   0.000000
     24       0.000000   0.000000   0.000000   0.000000   0.000000   0.000000
     25       0.000000   0.000000   0.000000   0.000000   0.000000   0.000000
     26       0.000000   0.000000   0.000000   0.000000   0.000000   0.000000
     27       0.000000   0.000000   0.000000   0.000000   0.000000   0.000000
     28       0.000000   0.000000   0.000000   0.000000   0.000000   0.000000
     29       0.000000   0.000000   0.000000   0.000000   0.000000   0.000000
     30       0.000000   0.000000   0.000000   0.000000   0.000000   0.000000
     31       0.000000   0.000000   0.000000   0.000000   0.000000   0.000000
     32       0.000000   0.000000   0.000000   0.000000   0.000000   0.000000
     33       0.000000   0.000000   0.000000   0.000000   0.000000   0.000000
     34       0.000000   0.000000   0.000000   0.000000   0.000000   0.000000
     35       0.000000   0.000000   0.000000   0.000000   0.000000   0.000000
     36       0.000000   0.000000   0.000000   0.000000   0.000000   0.000000
     37       0.000000   0.000000   0.000000   0.000000   0.000000   0.000000
     38       0.000000   0.000000   0.000000   0.000000   0.000000   0.000000
     39       0.000000   0.000000   0.000000   0.000000   0.000000   0.000000
     40       0.000000   0.000000   0.000000   0.000000   0.000000   0.000000
     41       0.000000   0.000000   0.000000   0.000000   0.000000   0.000000
     42       0.000000   0.000000   0.000000   0.000000   0.000000   0.000000
     43       0.000000   0.000000   0.000000   0.000000   0.000000   0.000000
     44       0.000000   0.000000   0.000000   0.000000   0.000000   0.000000
     45       0.000000   0.000000   0.000000   0.000000   0.000000   0.000000
     46       0.000000   0.000000   0.000000   0.000000   0.000000   0.000000
     47       0.000000   0.000000   0.000000   0.000000   0.000000   0.000000
     48       0.000000   0.000000   0.000000   0.000000   0.000000   0.000000
     49       0.000000   0.000000   0.000000   0.000000   0.000000   0.000000
     50       0.000000   0.000000   0.000000   0.000000   0.000000   0.000000
     51       0.000000   0.000000   0.000000   0.000000   0.000000   0.000000
     52       0.000000   0.000000   0.000000   0.000000   0.000000   0.000000
     53       0.000000   0.000000   0.000000   0.000000   0.000000   0.000000
     54       0.000000   0.000000   0.000000   0.000000   0.000000   0.000000
     55       0.000000   0.000000   0.000000   0.000000   0.000000   0.000000
     56       0.000000   0.000000   0.000000   0.000000   0.000000   0.000000
                  6          7          8          9         10         11    
      0      -0.131701   0.137841   0.127222   0.244667   0.020519   0.000304
      1       0.123101  -0.128547  -0.112969   0.281911  -0.020814   0.000343
      2       0.043991  -0.046094  -0.041667  -0.041223  -0.006843  -0.000246
      3      -0.061897   0.021577  -0.189416   0.070510  -0.014882   0.028585
      4       0.057913  -0.020212   0.178722   0.052559   0.013624  -0.026554
      5       0.020683  -0.007281   0.064272   0.037843   0.004882  -0.009663
      6       0.059922  -0.078724  -0.063447  -0.069693   0.011992  -0.062684
      7      -0.056051   0.073644   0.057946  -0.049449  -0.010824   0.058756
      8      -0.019927   0.026129   0.020085  -0.080838  -0.003627   0.020720
      9       0.147991  -0.109238   0.007551  -0.077663  -0.036392  -0.045310
     10      -0.138744   0.102266  -0.008837  -0.059418   0.034668   0.042402
     11      -0.049240   0.036461  -0.003475  -0.065789   0.012212   0.015078
     12       0.030348  -0.041008  -0.013584  -0.076477   0.064386  -0.025201
     13      -0.028323   0.038455   0.011256  -0.056076  -0.060232   0.023590
     14      -0.010067   0.013558   0.003382  -0.075509  -0.021128   0.008281
     15       0.042627   0.070395   0.006922  -0.064621   0.257623  -0.036522
     16      -0.039820  -0.065982  -0.007402  -0.043294  -0.242083   0.034240
     17      -0.014179  -0.023401  -0.003190  -0.076721  -0.085655   0.012086
     18       0.164221  -0.057984   0.039545  -0.074064  -0.036222   0.027772
     19      -0.154073   0.054284  -0.038649  -0.063195   0.034336  -0.026241
     20      -0.054681   0.019606  -0.013630  -0.039669   0.011924  -0.009182
     21       0.078212   0.075746   0.005999  -0.057088   0.050851   0.015252
     22      -0.073296  -0.071107  -0.006567  -0.046747  -0.047609  -0.014450
     23      -0.026081  -0.024873  -0.002469  -0.040319  -0.017055  -0.005012
     24      -0.039442  -0.107259   0.080345  -0.083577  -0.121769   0.036681
     25       0.037422   0.100907  -0.077012  -0.063698   0.115097  -0.034765
     26       0.013166   0.035362  -0.028554  -0.056087   0.040963  -0.012283
     27       0.014054   0.212587  -0.020299   0.041329  -0.133096   0.029751
     28      -0.012875  -0.199110   0.019780   0.029143   0.124539  -0.027899
     29      -0.004731  -0.070001   0.007392   0.043251   0.043618  -0.009677
     30      -0.205804  -0.126134  -0.007641   0.075233   0.017548   0.000979
     31       0.192406   0.117295   0.007693  -0.030952  -0.016220  -0.000997
     32       0.068266   0.041440   0.005901   0.312114  -0.005984  -0.000023
     33      -0.109111   0.021812  -0.637623   0.092017  -0.049048   0.155093
     34       0.101950  -0.020335   0.596352  -0.021921   0.045740  -0.144611
     35       0.036503  -0.007396   0.216528   0.252372   0.015460  -0.051742
     36       0.185081  -0.152299   0.007372  -0.094262  -0.097530  -0.043099
     37      -0.173510   0.142416  -0.009132  -0.079286   0.092426   0.040166
     38      -0.061595   0.050824  -0.003391  -0.058691   0.032543   0.014356
     39      -0.014824   0.126598   0.042678  -0.056540   0.312686  -0.038656
     40       0.014176  -0.118472  -0.040721  -0.030703  -0.294083   0.036386
     41       0.004991  -0.042191  -0.015161  -0.082429  -0.103994   0.012783
     42       0.225060  -0.080189   0.064793  -0.076256  -0.151184   0.108520
     43      -0.211171   0.075104  -0.062497  -0.072718   0.142317  -0.102017
     44      -0.075001   0.027091  -0.021622  -0.013343   0.050044  -0.036119
     45      -0.043536  -0.217910   0.118681  -0.070439  -0.205007  -0.043498
     46       0.041414   0.205273  -0.113909  -0.050586   0.194231   0.040779
     47       0.014614   0.071885  -0.041666  -0.044529   0.068861   0.014116
     48      -0.351280  -0.067901  -0.063555   0.229633  -0.204211  -0.402565
     49       0.328467   0.062238   0.062544   0.101081   0.191095   0.376006
     50       0.116544   0.021834   0.025652   0.390244   0.067572   0.133702
     51      -0.349979  -0.513779   0.037894   0.013334   0.315653   0.219718
     52       0.035476   0.079944  -0.031397  -0.118234  -0.131168  -0.289070
     53       0.171810  -0.084366   0.066319   0.376352   0.241119   0.393911
     54      -0.093992  -0.052165   0.008238   0.012981   0.045886   0.142615
     55       0.379354   0.448376  -0.013378  -0.119822  -0.206450  -0.049772
     56      -0.024450   0.270906  -0.073963   0.382271  -0.361107  -0.513252
                 12         13         14         15         16         17    
      0       0.128516  -0.009105   0.000485   0.014131  -0.011595  -0.007611
      1       0.131638   0.007590   0.002689   0.123913   0.030638   0.007081
      2       0.018721   0.003048  -0.006985  -0.306078  -0.120746   0.002718
      3      -0.003206  -0.030895   0.012913  -0.049017   0.032048   0.009700
      4      -0.030966   0.028969  -0.011214   0.044541   0.082944  -0.008789
      5       0.074714   0.010312  -0.010551  -0.259569  -0.135162  -0.003092
      6      -0.077132   0.157331  -0.048694  -0.007124   0.089331  -0.132023
      7      -0.086526  -0.147294   0.046613   0.029860   0.101408   0.124133
      8       0.001574  -0.052460   0.013082  -0.140393  -0.024857   0.044280
      9      -0.067094   0.055639  -0.019682  -0.007220   0.102032   0.175254
     10      -0.100488  -0.051782   0.017858  -0.038500   0.086923  -0.164309
     11       0.077343  -0.019056   0.008314   0.069653   0.057906  -0.058370
     12      -0.027457   0.034542  -0.021278  -0.036436   0.052193  -0.101560
     13      -0.019110  -0.032552   0.018743  -0.022032   0.051568   0.095342
     14      -0.032204  -0.011575   0.005371  -0.062046   0.008946   0.034076
     15       0.061836  -0.037436   0.026081  -0.002726   0.028551   0.086198
     16       0.041682   0.034601  -0.024290   0.005666   0.010104  -0.081427
     17       0.068980   0.011755  -0.008673  -0.009738   0.060616  -0.028770
     18       0.019903  -0.151181   0.038123   0.041039   0.085885  -0.103007
     19      -0.032768   0.141877  -0.034552   0.001636   0.073243   0.096736
     20       0.159276   0.049335  -0.008792   0.144689   0.058084   0.033948
     21       0.060957  -0.055099   0.003978   0.034801  -0.012114  -0.103489
     22       0.017983   0.051378  -0.003580  -0.015368  -0.050879   0.096916
     23       0.136078   0.017427   0.002704   0.151935   0.108025   0.034280
     24      -0.037223  -0.054538  -0.042211  -0.025891   0.062506   0.039025
     25       0.050189   0.051128   0.036723  -0.143165   0.115954  -0.036917
     26      -0.248274   0.019426   0.019532   0.295727  -0.142712  -0.013508
     27      -0.008976   0.089996  -0.007247   0.032234  -0.168035   0.030943
     28      -0.038381  -0.083608   0.005853  -0.024654  -0.187789  -0.028828
     29       0.080963  -0.029888   0.006238   0.163158   0.024164  -0.009960
     30      -0.050877   0.008764  -0.003319  -0.002956  -0.192485   0.003973
     31       0.026074  -0.007689   0.002420   0.030580  -0.261840  -0.003583
     32      -0.228373  -0.001859  -0.000934  -0.097220   0.158341  -0.001220
     33       0.005112  -0.279582   0.098412  -0.058635   0.025853   0.159801
     34      -0.067115   0.260845  -0.091954   0.026272   0.110529  -0.148715
     35       0.205491   0.093254  -0.037388  -0.169813  -0.217458  -0.053534
     36      -0.128783   0.057734  -0.010009  -0.107271   0.071064   0.503531
     37      -0.178163  -0.053092   0.003690  -0.161668   0.048396  -0.472189
     38       0.110719  -0.019817   0.005546   0.122326   0.074298  -0.167704
     39       0.120138  -0.032319   0.079286   0.092417   0.067237   0.352884
     40       0.116735   0.029100  -0.068923   0.139060   0.059661  -0.332555
     41       0.034851   0.010122  -0.027041  -0.067549   0.041437  -0.117688
     42       0.025493  -0.232262   0.067884   0.038574   0.078492   0.042629
     43      -0.047060   0.218041  -0.062343   0.010077   0.088010  -0.039945
     44       0.223034   0.076084  -0.019046   0.136247  -0.000347  -0.014738
     45      -0.153172   0.336664   0.690535   0.103416  -0.055096  -0.074061
     46      -0.040026  -0.316477  -0.647225   0.105844   0.039383   0.068533
     47      -0.344397  -0.108754  -0.217498   0.501055  -0.228358   0.022994
     48      -0.233490  -0.264135   0.013238  -0.172973  -0.071192  -0.018415
     49      -0.131369   0.248273  -0.019430  -0.116207  -0.153962   0.017097
     50      -0.322111   0.089049  -0.009421  -0.184654   0.223501   0.006088
     51       0.024351   0.096546  -0.012134   0.065732  -0.231104  -0.009320
     52       0.131832  -0.211225   0.017839   0.130572  -0.328049  -0.024741
     53      -0.305364   0.247179  -0.020700  -0.171390   0.213290   0.014164
     54       0.023646   0.117542  -0.008371   0.066942  -0.235915   0.018757
     55       0.132283   0.010959   0.006937   0.129400  -0.323874   0.016464
     56      -0.310770  -0.315669   0.021190  -0.176396   0.213527  -0.017191
                 18         19         20         21         22         23    
      0       0.057355  -0.006314  -0.017087   0.013165  -0.015539  -0.009031
      1       0.093086  -0.006226  -0.095587  -0.011928   0.014738  -0.016525
      2      -0.089170  -0.001760   0.216405  -0.005237   0.005323   0.019106
      3      -0.148585   0.047812   0.107415  -0.026994   0.035389   0.088200
      4      -0.164187   0.062656   0.073406   0.024042  -0.034021   0.107642
      5       0.015732  -0.032062   0.116879   0.008454  -0.011663  -0.037485
      6      -0.083757   0.080399  -0.025257  -0.033650   0.223184   0.092202
      7      -0.109709   0.069292   0.026944   0.030711  -0.209568   0.088695
      8       0.061140   0.043861  -0.149203   0.011442  -0.074534   0.026809
      9      -0.115781   0.073993  -0.054351  -0.074766  -0.123889   0.130017
     10      -0.164269   0.042570  -0.041758   0.069959   0.116545  -0.014695
     11       0.113468   0.106130  -0.044548   0.024243   0.041509   0.431452
     12       0.176821   0.057022  -0.007014   0.243138  -0.296432  -0.034712
     13       0.184660   0.052508   0.093039  -0.229395   0.278824  -0.013513
     14       0.011256   0.017115  -0.288914  -0.079934   0.098569  -0.068665
     15       0.046744  -0.154141   0.011855   0.030346   0.098796  -0.057750
     16       0.085097  -0.107654   0.111478  -0.027639  -0.092213  -0.007587
     17      -0.099367  -0.160799  -0.279766  -0.007788  -0.032917  -0.151517
     18      -0.150463  -0.155549   0.032435   0.086568   0.152355  -0.043622
     19      -0.177994  -0.144203   0.015337  -0.080011  -0.142826  -0.122004
     20       0.052857  -0.065704   0.052704  -0.028546  -0.050334   0.214100
     21      -0.009636  -0.166900   0.034337  -0.309223  -0.178273  -0.014168
     22       0.022678  -0.169079   0.015835   0.291927   0.168033  -0.001889
     23      -0.093414  -0.014526   0.066093   0.102766   0.059245  -0.036385
     24       0.261489   0.083946   0.014890  -0.054614   0.051762  -0.121584
     25       0.227507   0.113163  -0.008903   0.050937  -0.048947  -0.110389
     26       0.142151  -0.066229   0.070432   0.018219  -0.017140  -0.052761
     27      -0.054010   0.067967  -0.020188   0.061990   0.027306  -0.038274
     28      -0.003628  -0.016041  -0.056384  -0.058224  -0.025738   0.052700
     29      -0.152221   0.249141   0.098306  -0.022294  -0.009675  -0.265763
     30      -0.050548   0.039065  -0.088973   0.007888   0.000534   0.050501
     31      -0.054364   0.054608  -0.097702  -0.007579  -0.001098   0.063251
     32       0.001056  -0.036762   0.007062  -0.002400  -0.000164  -0.026032
     33      -0.134327   0.043442   0.102960   0.027138  -0.169216   0.084230
     34      -0.226672   0.087627   0.070077  -0.026500   0.156855   0.139667
     35       0.229311  -0.112788   0.110204  -0.009366   0.057395  -0.138676
     36      -0.077884   0.143793  -0.134466   0.090675  -0.160046   0.067681
     37      -0.116413   0.131054  -0.146047  -0.085506   0.150272  -0.097450
     38       0.089197   0.065365   0.003482  -0.030832   0.053577   0.474211
     39      -0.043708  -0.253362   0.196606   0.045828   0.466144  -0.039202
     40      -0.032815  -0.233671   0.347096  -0.043097  -0.437288   0.019147
     41      -0.042198  -0.099755  -0.390322  -0.012857  -0.155491  -0.170969
     42      -0.143473  -0.169220   0.035589   0.545673   0.016348  -0.042642
     43      -0.214281  -0.056177   0.000523  -0.511431  -0.015188  -0.091878
     44       0.173318  -0.367055   0.089787  -0.179750  -0.004802   0.134011
[...]
     43       0.002451   0.017812  -0.006668   0.178483   0.172641   0.007533
     44       0.330043   0.005844   0.050594  -0.490971  -0.237808  -0.291302
     45      -0.239786  -0.000051  -0.010274   0.195156  -0.296557  -0.244663
     46      -0.198880   0.000548  -0.008549   0.159178  -0.236836  -0.196851
     47      -0.160018   0.000294  -0.006939   0.135440  -0.219634  -0.179411
     48      -0.016763   0.507307   0.302751   0.133195   0.085559   0.021992
     49      -0.010869  -0.477814   0.250173   0.114982   0.083492   0.012748
     50      -0.024473  -0.170178   0.175762   0.082572   0.024277   0.030827
     51       0.222820  -0.097137  -0.440312   0.265549  -0.023260   0.107637
     52      -0.039629  -0.338325   0.208467   0.085278   0.002807   0.031686
     53       0.119787   0.345492  -0.397251   0.007669  -0.026249  -0.005113
     54       0.001209   0.201902   0.072166   0.079736  -0.005986   0.026962
     55       0.168496   0.247772  -0.260593   0.257310  -0.013494   0.106665
     56       0.192229  -0.368582  -0.573640   0.070157  -0.031553   0.021662
                 48         49         50         51         52         53    
      0       0.149860   0.002317   0.000063  -0.000004   0.000005   0.000398
      1       0.021840   0.000472  -0.000011   0.000003   0.000016   0.000279
      2       0.387761   0.005618   0.000216   0.000001  -0.000030   0.000408
      3      -0.213616   0.054629   0.000133  -0.000013  -0.000019  -0.000206
      4      -0.008231   0.056561   0.000275   0.000013  -0.000036   0.000230
      5      -0.617077   0.005472  -0.000371   0.000005   0.000042  -0.001259
      6       0.081591   0.001315  -0.000211   0.000002   0.000018   0.000946
      7       0.065497   0.001217  -0.000323  -0.000002   0.000022   0.000985
      8       0.060445   0.000537   0.000280  -0.000001  -0.000010   0.000061
      9      -0.087555  -0.000829   0.000262   0.000034  -0.000264  -0.033182
     10      -0.104308  -0.000946   0.000272  -0.000032  -0.000109  -0.008213
     11       0.031256   0.000186   0.000019  -0.000010  -0.000482  -0.076502
     12      -0.036044   0.003911   0.000106   0.000032  -0.000042   0.000289
     13      -0.066737   0.003830   0.000221  -0.000030  -0.000030   0.000049
     14       0.080123   0.000914  -0.000308  -0.000011  -0.000042   0.000730
     15       0.059214  -0.000813  -0.000326   0.000041  -0.000001   0.000100
     16       0.081779  -0.000761  -0.000511  -0.000039   0.000006  -0.000021
     17      -0.052984  -0.000289   0.000464  -0.000015  -0.000021   0.000358
     18       0.031778   0.000150   0.001384  -0.000046   0.002369   0.013362
     19       0.054376   0.000314   0.001190   0.000042   0.002308   0.012055
     20      -0.058059  -0.000435   0.000803   0.000015   0.000607   0.006146
     21      -0.037178   0.000257   0.000664  -0.000263  -0.000727   0.000134
     22      -0.050049   0.000027   0.001480   0.000243  -0.000834   0.000111
     23       0.029637   0.000702  -0.002178   0.000089   0.000174   0.000090
     24      -0.006227  -0.000705  -0.000026  -0.000010   0.000032  -0.000061
     25      -0.001093  -0.000454  -0.000038   0.000010   0.000024  -0.000010
     26      -0.015648  -0.000897   0.000031   0.000004   0.000030  -0.000154
     27       0.005045   0.000130  -0.002160  -0.000207   0.000332   0.000041
     28       0.007384   0.000268  -0.002554   0.000198   0.000264   0.000066
     29      -0.005659  -0.000368   0.000678   0.000068   0.000250  -0.000060
     30       0.001059  -0.000079  -0.031816   0.067305  -0.002727   0.000230
     31       0.001930  -0.000080  -0.024423  -0.062855   0.027897  -0.000287
     32      -0.002258  -0.000008  -0.027248  -0.022228  -0.087178   0.001502
     33      -0.075344  -0.698849  -0.001349   0.000075   0.000365  -0.004092
     34      -0.240736  -0.691805  -0.001282  -0.000077   0.000385  -0.004403
     35       0.448639  -0.159207  -0.000446  -0.000028   0.000020   0.000053
     36       0.082382  -0.005129  -0.000180  -0.000047   0.003090   0.385984
     37       0.117331  -0.003772  -0.000316   0.000038   0.000824   0.098225
     38      -0.082805  -0.004787   0.000356   0.000002   0.006955   0.882288
     39      -0.076601   0.002049   0.000166   0.000134   0.000673  -0.001145
     40      -0.090131   0.001973   0.000573  -0.000118   0.000312  -0.000139
     41       0.024707   0.000582  -0.001105  -0.000025   0.001139  -0.003037
     42       0.036519  -0.001067  -0.016702  -0.000378  -0.027561  -0.165521
     43       0.032765  -0.000558  -0.016564   0.000383  -0.027455  -0.161146
     44       0.017341  -0.001640  -0.003454   0.000134  -0.005378  -0.042763
     45       0.090701  -0.021615   0.000073  -0.000014  -0.000016   0.000213
     46       0.072024  -0.026495   0.000025   0.000017   0.000057  -0.000033
     47       0.067815   0.011285   0.000150   0.000001  -0.000214   0.000735
     48      -0.008850  -0.000148   0.026276   0.016688  -0.079938   0.000660
     49      -0.006824  -0.000542   0.129847  -0.015230  -0.391528   0.005251
     50      -0.007662   0.001074  -0.286649  -0.006115   0.862434  -0.012819
     51      -0.008597   0.000754  -0.204296  -0.202510  -0.069932   0.002627
     52      -0.011816  -0.001012   0.462910   0.475296   0.150926  -0.004966
     53       0.009145  -0.000693   0.439011   0.477505   0.125720  -0.004918
     54      -0.007946  -0.001188   0.584846  -0.609879   0.184045  -0.006351
     55      -0.012353   0.000806  -0.273895   0.282963  -0.086589   0.003419
     56       0.008867  -0.000046   0.177533  -0.208635   0.040959  -0.001951
                  54         55         56    
      0       0.000010  -0.000100  -0.000359
      1       0.000041  -0.000047  -0.000373
      2      -0.000085  -0.000170  -0.000032
      3      -0.000163   0.000064   0.002556
      4      -0.000189  -0.000063   0.002809
      5       0.000039   0.000369  -0.000210
      6       0.000482  -0.000814  -0.000145
      7       0.000343  -0.000798  -0.000387
      8       0.000486  -0.000196   0.000648
      9      -0.000872   0.007194   0.000037
     10      -0.000071   0.000317   0.000014
     11      -0.002419   0.020720   0.000073
     12      -0.001590  -0.000302  -0.000280
     13      -0.002473  -0.000385  -0.000953
     14       0.002199   0.000181   0.001869
     15      -0.034746  -0.004355   0.000523
     16      -0.009087  -0.001478   0.000749
     17      -0.078540  -0.008890  -0.000551
     18      -0.006600   0.059063   0.000144
     19      -0.006664   0.057908   0.000060
     20      -0.001032   0.014105   0.000265
     21       0.002477  -0.000612  -0.000320
     22       0.002577   0.000438  -0.000302
     23       0.000165  -0.003079  -0.000115
     24       0.000119  -0.000001  -0.016339
     25       0.000190   0.000014  -0.034480
     26      -0.000181  -0.000042   0.049025
     27      -0.000242   0.000137   0.000019
     28      -0.000239   0.000010   0.000021
     29      -0.000054   0.000384  -0.000002
     30      -0.000157   0.001008  -0.000001
     31      -0.000120  -0.000143  -0.000008
     32      -0.000132   0.003456   0.000023
     33       0.000969   0.002323  -0.018159
     34       0.000977   0.002549  -0.017819
     35       0.000178  -0.000169  -0.004431
     36       0.011751  -0.090448   0.000607
     37       0.002882  -0.021505   0.000601
     38       0.027163  -0.211023   0.000148
     39       0.399182   0.046128  -0.000333
     40       0.105403   0.012768   0.000149
     41       0.899523   0.102282  -0.001395
     42       0.076754  -0.676872  -0.000259
     43       0.075501  -0.663198  -0.000295
     44       0.017652  -0.162937   0.000047
     45       0.001942  -0.000094   0.252836
     46       0.002007  -0.000151   0.546450
     47       0.000156   0.000160  -0.795560
     48      -0.000318   0.000539   0.000010
     49      -0.000882   0.009623   0.000070
     50       0.001530  -0.025537  -0.000158
     51      -0.000809   0.008083   0.000069
     52       0.002271  -0.015410   0.000002
     53       0.002088  -0.016266  -0.000056
     54       0.002867  -0.020007  -0.000016
     55      -0.001149   0.010840   0.000078
     56       0.000889  -0.006978  -0.000022


-----------
IR SPECTRUM
-----------

 Mode    freq (cm**-1)   T**2         TX         TY         TZ
-------------------------------------------------------------------
   6:        76.84    0.110154  ( -0.237248   0.216957   0.082445)
   7:       102.22    9.157854  ( -2.154545   2.002529   0.711103)
   8:       160.37    4.296368  ( -1.490622   1.345537   0.513756)
   9:       184.24    6.886961  ( -1.290530  -1.882296   1.295552)
  10:       214.47    0.285073  ( -0.367058   0.370191   0.115326)
  11:       236.86    0.247162  ( -0.355528   0.328207   0.114204)
  12:       266.31    5.888912  ( -1.696521  -1.507277  -0.859562)
  13:       300.41    3.211305  (  1.282927  -1.185363  -0.400397)
  14:       364.73   85.216080  (  6.610960  -6.074712  -2.146893)
  15:       365.73    5.258609  (  1.241504   1.891573   0.373133)
  16:       379.52    1.424584  ( -0.856878  -0.648712  -0.519150)
  17:       456.70    2.496792  (  1.109025  -1.058596  -0.382401)
  18:       531.55   21.120950  ( -2.136198  -3.197013   2.517283)
  19:       579.24   19.979889  ( -0.237878   1.281705  -4.275574)
  20:       622.69   13.987920  (  1.568236   2.486580  -2.312028)
  21:       632.83    0.344050  (  0.412027  -0.403786  -0.106020)
  22:       640.74    2.525733  ( -1.148162   1.027467   0.389573)
  23:       735.58    1.958341  (  0.916902   0.710600   0.782739)
  24:       772.41   28.950453  ( -3.814593   3.578217   1.263211)
  25:       818.73   19.711498  ( -1.301089  -2.623349   3.337170)
  26:       827.27   28.263661  (  3.770150  -3.526465  -1.270308)
  27:       935.78    4.486830  (  1.510864  -1.396764  -0.503160)
  28:       954.57    6.315718  (  1.748553   1.799004   0.147864)
  29:       974.25    0.096922  ( -0.206035   0.224323   0.064425)
  30:      1043.02   54.884700  (  5.126020   5.333205   0.406862)
  31:      1129.19   56.601785  ( -3.478894  -5.202539   4.175244)
  32:      1161.99    0.394913  (  0.464508  -0.393283  -0.156440)
  33:      1168.44  313.904269  ( 11.787791  13.120535  -1.674462)
  34:      1195.12    4.484515  (  0.891960   0.263990   1.902428)
  35:      1225.12   13.215440  ( -2.541251  -2.576516  -0.345035)
  36:      1247.65  126.219074  (  5.405504   7.866111  -5.926542)
  37:      1295.80  255.713347  (  0.924474   6.234277 -14.696683)
  38:      1319.47   96.300454  (  3.730190   6.291072  -6.542824)
  39:      1369.80   56.918587  ( -4.907959  -5.617069   1.130958)
  40:      1451.99   10.296066  (  1.541690   0.669563   2.733303)
  41:      1471.20   15.798718  (  2.173924   2.885484  -1.657334)
  42:      1482.73   26.130084  (  3.545570   3.011552   2.118861)
  43:      1498.24    8.339930  (  2.011961  -1.971690  -0.635911)
  44:      1506.82   56.844589  (  3.575362   5.217720  -4.103263)
  45:      1527.35   60.029736  (  4.790691   5.775005  -1.930889)
  46:      1583.23   86.367274  ( -6.025483  -4.446659  -5.503459)
  47:      1648.58  553.484068  (  7.394028  14.034780 -17.373467)
  48:      1718.09  235.753935  ( -3.503691   1.549617 -14.868651)
  49:      2717.50  229.478553  ( 10.553329  10.776455   1.404925)
  50:      2983.91   62.937097  ( -5.198250  -5.909407   0.997094)
  51:      3048.55   36.952995  (  4.321967  -4.029496  -1.427149)
  52:      3113.69   23.070043  (  0.624786   2.166560  -4.240955)
  53:      3152.24    0.715598  ( -0.483889  -0.295868  -0.627623)
  54:      3169.43    1.678401  ( -0.659017  -0.322164  -1.067852)
  55:      3176.07    9.672501  (  1.995806   2.320727  -0.550894)
  56:      3719.86   43.620228  (  2.557683   4.247147  -4.363511)

The first frequency considered to be a vibration is 6
The total number of vibrations considered is 51


--------------------------
THERMOCHEMISTRY AT 298.15K
--------------------------

Temperature         ... 298.15 K
Pressure            ... 1.00 atm
Total Mass          ... 152.15 AMU

Throughout the following assumptions are being made:
  (1) The electronic state is orbitally nondegenerate
  (2) There are no thermally accessible electronically excited states
  (3) Hindered rotations indicated by low frequency modes are not
      treated as such but are treated as vibrations and this may
      cause some error
  (4) All equations used are the standard statistical mechanics
      equations for an ideal gas
  (5) All vibrations are strictly harmonic

freq.      76.84  E(vib)   ...       0.49 
freq.     102.22  E(vib)   ...       0.46 
freq.     160.37  E(vib)   ...       0.39 
freq.     184.24  E(vib)   ...       0.37 
freq.     214.47  E(vib)   ...       0.34 
freq.     236.86  E(vib)   ...       0.32 
freq.     266.31  E(vib)   ...       0.29 
freq.     300.41  E(vib)   ...       0.26 
freq.     364.73  E(vib)   ...       0.22 
freq.     365.73  E(vib)   ...       0.22 
freq.     379.52  E(vib)   ...       0.21 
freq.     456.70  E(vib)   ...       0.16 
freq.     531.55  E(vib)   ...       0.13 
freq.     579.24  E(vib)   ...       0.11 
freq.     622.69  E(vib)   ...       0.09 
freq.     632.83  E(vib)   ...       0.09 
freq.     640.74  E(vib)   ...       0.09 
freq.     735.58  E(vib)   ...       0.06 
freq.     772.41  E(vib)   ...       0.05 
freq.     818.73  E(vib)   ...       0.05 
freq.     827.27  E(vib)   ...       0.04 
freq.     935.78  E(vib)   ...       0.03 
freq.     954.57  E(vib)   ...       0.03 
freq.     974.25  E(vib)   ...       0.03 
freq.    1043.02  E(vib)   ...       0.02 
freq.    1129.19  E(vib)   ...       0.01 
freq.    1161.99  E(vib)   ...       0.01 
freq.    1168.44  E(vib)   ...       0.01 
freq.    1195.12  E(vib)   ...       0.01 
freq.    1225.12  E(vib)   ...       0.01 
freq.    1247.65  E(vib)   ...       0.01 
freq.    1295.80  E(vib)   ...       0.01 
freq.    1319.47  E(vib)   ...       0.01 
freq.    1369.80  E(vib)   ...       0.01 
freq.    1451.99  E(vib)   ...       0.00 
freq.    1471.20  E(vib)   ...       0.00 
freq.    1482.73  E(vib)   ...       0.00 
freq.    1498.24  E(vib)   ...       0.00 
freq.    1506.82  E(vib)   ...       0.00 
freq.    1527.35  E(vib)   ...       0.00 
freq.    1583.23  E(vib)   ...       0.00 
freq.    1648.58  E(vib)   ...       0.00 
freq.    1718.09  E(vib)   ...       0.00 
freq.    2717.50  E(vib)   ...       0.00 
freq.    2983.91  E(vib)   ...       0.00 
freq.    3048.55  E(vib)   ...       0.00 
freq.    3113.69  E(vib)   ...       0.00 
freq.    3152.24  E(vib)   ...       0.00 
freq.    3169.43  E(vib)   ...       0.00 
freq.    3176.07  E(vib)   ...       0.00 
freq.    3719.86  E(vib)   ...       0.00 

------------
INNER ENERGY
------------

The inner energy is: U= E(el) + E(ZPE) + E(vib) + E(rot) + E(trans)
    E(el)   - is the total energy from the electronic structure calculation
              = E(kin-el) + E(nuc-el) + E(el-el) + E(nuc-nuc)
    E(ZPE)  - the the zero temperature vibrational energy from the frequency calculation
    E(vib)  - the the finite temperature correction to E(ZPE) due to population
              of excited vibrational states
    E(rot)  - is the rotational thermal energy
    E(trans)- is the translational thermal energy

Summary of contributions to the inner energy U:
Electronic energy                ...   -535.08268587 Eh
Zero point energy                ...      0.14411489 Eh      90.43 kcal/mol
Thermal vibrational correction   ...      0.00739868 Eh       4.64 kcal/mol
Thermal rotational correction    ...      0.00141627 Eh       0.89 kcal/mol
Thermal translational correction ...      0.00141627 Eh       0.89 kcal/mol
-----------------------------------------------------------------------
Total thermal energy                   -534.92833976 Eh


Summary of corrections to the electronic energy:
(perhaps to be used in another calculation)
Total thermal correction                  0.01023122 Eh       6.42 kcal/mol
Non-thermal (ZPE) correction              0.14411489 Eh      90.43 kcal/mol
-----------------------------------------------------------------------
Total correction                          0.15434611 Eh      96.85 kcal/mol


--------
ENTHALPY
--------

The enthalpy is H = U + kB*T
                kB is Boltzmann's constant
Total free energy                 ...   -534.92833976 Eh 
Thermal Enthalpy correction       ...      0.00094421 Eh       0.59 kcal/mol
-----------------------------------------------------------------------
Total Enthalpy                    ...   -534.92739555 Eh


Note: Only C1 symmetry has been detected, increase convergence thresholds 
      if your molecule has a higher symmetry. Symmetry factor of 1.0 is   
      used for the rotational entropy correction. 
 

Note: Rotational entropy computed according to Herzberg 
Infrared and Raman Spectra, Chapter V,1, Van Nostrand Reinhold, 1945 
Point Group:  C1, Symmetry Number:   1  
Rotational constants in cm-1:     0.076198     0.023068     0.017767 

Vibrational entropy computed according to the QRRHO of S. Grimme
Chem.Eur.J. 2012 18 9955


-------
ENTROPY
-------

The entropy contributions are T*S = T*(S(el)+S(vib)+S(rot)+S(trans))
     S(el)   - electronic entropy
     S(vib)  - vibrational entropy
     S(rot)  - rotational entropy
     S(trans)- translational entropy
The entropies will be listed as mutliplied by the temperature to get
units of energy

Electronic entropy                ...      0.00000000 Eh      0.00 kcal/mol
Vibrational entropy               ...      0.01243921 Eh      7.81 kcal/mol
Rotational entropy                ...      0.01440835 Eh      9.04 kcal/mol
Translational entropy             ...      0.01946564 Eh     12.21 kcal/mol
-----------------------------------------------------------------------
Final entropy term                ...      0.04631319 Eh     29.06 kcal/mol

In case the symmetry of your molecule has not been determined correctly
or in case you have a reason to use a different symmetry number we print 
out the resulting rotational entropy values for sn=1,12 :
 --------------------------------------------------------
|  sn= 1 | S(rot)=       0.01440835 Eh      9.04 kcal/mol|
|  sn= 2 | S(rot)=       0.01375389 Eh      8.63 kcal/mol|
|  sn= 3 | S(rot)=       0.01337106 Eh      8.39 kcal/mol|
|  sn= 4 | S(rot)=       0.01309943 Eh      8.22 kcal/mol|
|  sn= 5 | S(rot)=       0.01288874 Eh      8.09 kcal/mol|
|  sn= 6 | S(rot)=       0.01271660 Eh      7.98 kcal/mol|
|  sn= 7 | S(rot)=       0.01257105 Eh      7.89 kcal/mol|
|  sn= 8 | S(rot)=       0.01244498 Eh      7.81 kcal/mol|
|  sn= 9 | S(rot)=       0.01233377 Eh      7.74 kcal/mol|
|  sn=10 | S(rot)=       0.01223429 Eh      7.68 kcal/mol|
|  sn=11 | S(rot)=       0.01214430 Eh      7.62 kcal/mol|
|  sn=12 | S(rot)=       0.01206214 Eh      7.57 kcal/mol|
 --------------------------------------------------------


-------------------
GIBBS FREE ENERGY
-------------------

The Gibbs free energy is G = H - T*S

Total enthalpy                    ...   -534.92739555 Eh 
Total entropy correction          ...     -0.04631319 Eh    -29.06 kcal/mol
-----------------------------------------------------------------------
Final Gibbs free energy         ...   -534.97370874 Eh

For completeness - the Gibbs free energy minus the electronic energy
G-E(el)                           ...      0.10897713 Eh     68.38 kcal/mol


Timings for individual modules:

Sum of individual times         ...      102.305 sec (=   1.705 min)
GTO integral calculation        ...        2.819 sec (=   0.047 min)   2.8 %
SCF iterations                  ...       17.762 sec (=   0.296 min)  17.4 %
Analytical frequency calculation...       81.724 sec (=   1.362 min)  79.9 %
                             ****ORCA TERMINATED NORMALLY****
TOTAL RUN TIME: 0 days 0 hours 1 minutes 46 seconds 968 msec
