
                                 *****************
                                 * O   R   C   A *
                                 *****************

                                            #,                                       
                                            ###                                      
                                            ####                                     
                                            #####                                    
                                            ######                                   
                                           ########,                                 
                                     ,,################,,,,,                         
                               ,,#################################,,                 
                          ,,##########################################,,             
                       ,#########################################, ''#####,          
                    ,#############################################,,   '####,        
                  ,##################################################,,,,####,       
                ,###########''''           ''''###############################       
              ,#####''   ,,,,##########,,,,          '''####'''          '####       
            ,##' ,,,,###########################,,,                        '##       
           ' ,,###''''                  '''############,,,                           
         ,,##''                                '''############,,,,        ,,,,,,###''
      ,#''                                            '''#######################'''  
     '                                                          ''''####''''         
             ,#######,   #######,   ,#######,      ##                                
            ,#'     '#,  ##    ##  ,#'     '#,    #''#        ######   ,####,        
            ##       ##  ##   ,#'  ##            #'  '#       #        #'  '#        
            ##       ##  #######   ##           ,######,      #####,   #    #        
            '#,     ,#'  ##    ##  '#,     ,#' ,#      #,         ##   #,  ,#        
             '#######'   ##     ##  '#######'  #'      '#     #####' # '####'        



                  #######################################################
                  #                        -***-                        #
                  #          Department of theory and spectroscopy      #
                  #    Directorship and core code : Frank Neese         #
                  #        Max Planck Institute fuer Kohlenforschung    #
                  #                Kaiser Wilhelm Platz 1               #
                  #                 D-45470 Muelheim/Ruhr               #
                  #                      Germany                        #
                  #                                                     #
                  #                  All rights reserved                #
                  #                        -***-                        #
                  #######################################################


                         Program Version 5.0.1 -  RELEASE  -


 With contributions from (in alphabetic order):
   Daniel Aravena         : Magnetic Suceptibility
   Michael Atanasov       : Ab Initio Ligand Field Theory (pilot matlab implementation)
   Alexander A. Auer      : GIAO ZORA, VPT2 properties, NMR spectrum
   Ute Becker             : Parallelization
   Giovanni Bistoni       : ED, misc. LED, open-shell LED, HFLD
   Martin Brehm           : Molecular dynamics
   Dmytro Bykov           : SCF Hessian
   Vijay G. Chilkuri      : MRCI spin determinant printing, contributions to CSF-ICE
   Dipayan Datta          : RHF DLPNO-CCSD density
   Achintya Kumar Dutta   : EOM-CC, STEOM-CC
   Dmitry Ganyushin       : Spin-Orbit,Spin-Spin,Magnetic field MRCI
   Miquel Garcia          : C-PCM and meta-GGA Hessian, CC/C-PCM, Gaussian charge scheme
   Yang Guo               : DLPNO-NEVPT2, F12-NEVPT2, CIM, IAO-localization
   Andreas Hansen         : Spin unrestricted coupled pair/coupled cluster methods
   Benjamin Helmich-Paris : MC-RPA, TRAH-SCF, COSX integrals
   Lee Huntington         : MR-EOM, pCC
   Robert Izsak           : Overlap fitted RIJCOSX, COSX-SCS-MP3, EOM
   Marcus Kettner         : VPT2
   Christian Kollmar      : KDIIS, OOCD, Brueckner-CCSD(T), CCSD density, CASPT2, CASPT2-K
   Simone Kossmann        : Meta GGA functionals, TD-DFT gradient, OOMP2, MP2 Hessian
   Martin Krupicka        : Initial AUTO-CI
   Lucas Lang             : DCDCAS
   Marvin Lechner         : AUTO-CI (C++ implementation), FIC-MRCC
   Dagmar Lenk            : GEPOL surface, SMD
   Dimitrios Liakos       : Extrapolation schemes; Compound Job, initial MDCI parallelization
   Dimitrios Manganas     : Further ROCIS development; embedding schemes
   Dimitrios Pantazis     : SARC Basis sets
   Anastasios Papadopoulos: AUTO-CI, single reference methods and gradients
   Taras Petrenko         : DFT Hessian,TD-DFT gradient, ASA, ECA, R-Raman, ABS, FL, XAS/XES, NRVS
   Peter Pinski           : DLPNO-MP2, DLPNO-MP2 Gradient
   Christoph Reimann      : Effective Core Potentials
   Marius Retegan         : Local ZFS, SOC
   Christoph Riplinger    : Optimizer, TS searches, QM/MM, DLPNO-CCSD(T), (RO)-DLPNO pert. Triples
   Tobias Risthaus        : Range-separated hybrids, TD-DFT gradient, RPA, STAB
   Michael Roemelt        : Original ROCIS implementation
   Masaaki Saitow         : Open-shell DLPNO-CCSD energy and density
   Barbara Sandhoefer     : DKH picture change effects
   Avijit Sen             : IP-ROCIS
   Kantharuban Sivalingam : CASSCF convergence, NEVPT2, FIC-MRCI
   Bernardo de Souza      : ESD, SOC TD-DFT
   Georgi Stoychev        : AutoAux, RI-MP2 NMR, DLPNO-MP2 response
   Willem Van den Heuvel  : Paramagnetic NMR
   Boris Wezisla          : Elementary symmetry handling
   Frank Wennmohs         : Technical directorship


 We gratefully acknowledge several colleagues who have allowed us to
 interface, adapt or use parts of their codes:
   Stefan Grimme, W. Hujo, H. Kruse, P. Pracht,  : VdW corrections, initial TS optimization,
                  C. Bannwarth, S. Ehlert          DFT functionals, gCP, sTDA/sTD-DF
   Ed Valeev, F. Pavosevic, A. Kumar             : LibInt (2-el integral package), F12 methods
   Garnet Chan, S. Sharma, J. Yang, R. Olivares  : DMRG
   Ulf Ekstrom                                   : XCFun DFT Library
   Mihaly Kallay                                 : mrcc  (arbitrary order and MRCC methods)
   Jiri Pittner, Ondrej Demel                    : Mk-CCSD
   Frank Weinhold                                : gennbo (NPA and NBO analysis)
   Christopher J. Cramer and Donald G. Truhlar   : smd solvation model
   Lars Goerigk                                  : TD-DFT with DH, B97 family of functionals
   V. Asgeirsson, H. Jonsson                     : NEB implementation
   FAccTs GmbH                                   : IRC, NEB, NEB-TS, DLPNO-Multilevel, CI-OPT
                                                   MM, QMMM, 2- and 3-layer-ONIOM, Crystal-QMMM,
                                                   LR-CPCM, SF, NACMEs, symmetry and pop. for TD-DFT,
                                                   nearIR, NL-DFT gradient (VV10), updates on ESD,
                                                   ML-optimized integration grids
   S Lehtola, MJT Oliveira, MAL Marques          : LibXC Library
   Liviu Ungur et al                             : ANISO software


 Your calculation uses the libint2 library for the computation of 2-el integrals
 For citations please refer to: http://libint.valeyev.net

 Your ORCA version has been built with support for libXC version: 5.1.0
 For citations please refer to: https://tddft.org/programs/libxc/

 This ORCA versions uses:
   CBLAS   interface :  Fast vector & matrix operations
   LAPACKE interface :  Fast linear algebra routines
   SCALAPACK package :  Parallel linear algebra routines
   Shared memory     :  Shared parallel matrices
   BLAS/LAPACK       :  OpenBLAS 0.3.15  USE64BITINT DYNAMIC_ARCH NO_AFFINITY Haswell SINGLE_THREADED
        Core in use  :  Haswell
   Copyright (c) 2011-2014, The OpenBLAS Project


Your calculation utilizes the atom-pairwise dispersion correction
with the Becke-Johnson damping scheme (D3BJ)
Cite in your paper:
S.Grimme, S.Ehrlich, L.Goerigk, J Comput Chem, (2011), 32, 1456–1465 
S.Grimme, J.Antony, S.Ehrlich and H.Krieg, J.Chem.Phys., 132, (2010), 154104 
   

Your calculation employs the composite approach B97-3c by Grimme and coworkers.
For the correct reference, please check the publication list of the Grimme group:
http://www.thch.uni-bonn.de/tc/index.php?section=publikationen&subsection=grimme#2017
   

XCFun DFT library Copyright 2009-2010 Ulf Ekstrom and contributors.
See http://admol.org/xcfun for more information.
This is free software; see the source code for copying conditions.
There is ABSOLUTELY NO WARRANTY; not even for MERCHANTABILITY or FITNESS FOR A PARTICULAR PURPOSE.
For details see the documentation.
Scientific users of this library should cite U. Ekstrom, L. Visscher, R. Bast, A. J. Thorvaldsen and K. Ruud;
J.Chem.Theor.Comp. 2010, DOI: 10.1021/ct100117s
XCFun Version 0.99 

================================================================================

----- Orbital basis set information -----
Your calculation utilizes the basis: def2-mTZVP
----- AuxJ basis set information -----
Your calculation utilizes the basis: def2-mTZVP/J
================================================================================
                                        WARNINGS
                       Please study these warnings very carefully!
================================================================================


INFO   : the flag for use of the SHARK integral package has been found!

================================================================================
                                       INPUT FILE
================================================================================
NAME = orca.inp
|  1> !b97-3c defgrid3 tightscf freq
|  2>         !moread
|  3>             %moinp "/data/pc5fprakt/05_molnupiravir/out_0001_molnupiravir_taut/molnupiravir_taut_qm_calcs/gas_000.016.orca.gbw" 
|  4> 
|  5>         %pal nprocs 4 end
|  6>         %maxcore 2000
|  7> 
|  8>         
|  9>         
| 10> 
| 11>         *xyz 0 1
| 12>         O -4.20926818 -0.73215791 -0.13280941
| 13> C -5.38509334 -1.45882625 -0.38169041
| 14> C -5.13864810 -2.91245472 0.02078184
| 15> C -3.65871589 -2.95139561 0.46650231
| 16> C -3.30296062 -1.47446744 0.66999002
| 17> O -2.82821943 -3.45645512 -0.56087690
| 18> H -3.52515200 -3.53244619 1.37593055
| 19> N -3.23954758 -0.96587316 2.04092249
| 20> H -2.31231741 -1.30784338 0.25811928
| 21> C -4.14732391 -1.36532370 3.01694991
| 22> N -4.04809006 -0.69039871 4.20939899
| 23> C -3.18644689 0.35563280 4.51244726
| 24> C -2.31248613 0.74532525 3.44881974
| 25> C -2.37404576 0.09619647 2.27998628
| 26> O -4.96671725 -2.25496328 2.85735440
| 27> H -1.74494926 0.36233058 1.44563989
| 28> H -1.62099228 1.55515599 3.60802474
| 29> N -3.15470749 0.95290808 5.65820953
| 30> O -4.11829795 0.37913729 6.52805767
| 31> H -3.99467973 0.89592537 7.33077204
| 32> O -5.38015654 -3.74630529 -1.11346845
| 33> H -5.78674562 -3.17508558 0.84774020
| 34> H -5.63153126 -4.61942101 -0.79327825
| 35> O -6.46594191 -0.94967657 0.40892482
| 36> H -5.63676237 -1.34933511 -1.43189150
| 37> C -7.15466793 0.11309533 -0.10392912
| 38> H -3.42664180 -3.79227130 -1.24850982
| 39> O -6.91091922 0.61982259 -1.17126796
| 40> C -8.27969744 0.50783954 0.82409528
| 41> C -9.52402900 -0.29813281 0.44431635
| 42> H -9.83639577 -0.06715098 -0.57294698
| 43> H -10.34632840 -0.05086007 1.11381833
| 44> H -9.34373901 -1.36920946 0.51321356
| 45> C -8.53421676 2.00485489 0.76318858
| 46> H -7.98340510 0.22168208 1.83378348
| 47> H -9.34891913 2.27335624 1.43390505
| 48> H -8.80348847 2.31072045 -0.24493081
| 49> H -7.65251211 2.57148273 1.05736260
| 50> H -4.69020287 -0.99292203 4.92412444
| 51>         *
| 52>                                   ****END OF INPUT****
================================================================================

                       ****************************
                       * Single Point Calculation *
                       ****************************

---------------------------------
CARTESIAN COORDINATES (ANGSTROEM)
---------------------------------
  O     -4.209268   -0.732158   -0.132809
  C     -5.385093   -1.458826   -0.381690
  C     -5.138648   -2.912455    0.020782
  C     -3.658716   -2.951396    0.466502
  C     -3.302961   -1.474467    0.669990
  O     -2.828219   -3.456455   -0.560877
  H     -3.525152   -3.532446    1.375931
  N     -3.239548   -0.965873    2.040922
  H     -2.312317   -1.307843    0.258119
  C     -4.147324   -1.365324    3.016950
  N     -4.048090   -0.690399    4.209399
  C     -3.186447    0.355633    4.512447
  C     -2.312486    0.745325    3.448820
  C     -2.374046    0.096196    2.279986
  O     -4.966717   -2.254963    2.857354
  H     -1.744949    0.362331    1.445640
  H     -1.620992    1.555156    3.608025
  N     -3.154707    0.952908    5.658210
  O     -4.118298    0.379137    6.528058
  H     -3.994680    0.895925    7.330772
  O     -5.380157   -3.746305   -1.113468
  H     -5.786746   -3.175086    0.847740
  H     -5.631531   -4.619421   -0.793278
  O     -6.465942   -0.949677    0.408925
  H     -5.636762   -1.349335   -1.431892
  C     -7.154668    0.113095   -0.103929
  H     -3.426642   -3.792271   -1.248510
  O     -6.910919    0.619823   -1.171268
  C     -8.279697    0.507840    0.824095
  C     -9.524029   -0.298133    0.444316
  H     -9.836396   -0.067151   -0.572947
  H    -10.346328   -0.050860    1.113818
  H     -9.343739   -1.369209    0.513214
  C     -8.534217    2.004855    0.763189
  H     -7.983405    0.221682    1.833783
  H     -9.348919    2.273356    1.433905
  H     -8.803488    2.310720   -0.244931
  H     -7.652512    2.571483    1.057363
  H     -4.690203   -0.992922    4.924124

----------------------------
CARTESIAN COORDINATES (A.U.)
----------------------------
  NO LB      ZA    FRAG     MASS         X           Y           Z
   0 O     8.0000    0    15.999   -7.954364   -1.383578   -0.250973
   1 C     6.0000    0    12.011  -10.176352   -2.756782   -0.721290
   2 C     6.0000    0    12.011   -9.710638   -5.503742    0.039272
   3 C     6.0000    0    12.011   -6.913971   -5.577329    0.881562
   4 C     6.0000    0    12.011   -6.241691   -2.786340    1.266098
   5 O     8.0000    0    15.999   -5.344560   -6.531754   -1.059904
   6 H     1.0000    0     1.008   -6.661572   -6.675356    2.600132
   7 N     7.0000    0    14.007   -6.121858   -1.825236    3.856785
   8 H     1.0000    0     1.008   -4.369647   -2.471466    0.487775
   9 C     6.0000    0    12.011   -7.837306   -2.580088    5.701209
  10 N     7.0000    0    14.007   -7.649782   -1.304664    7.954611
  11 C     6.0000    0    12.011   -6.021512    0.672049    8.527290
  12 C     6.0000    0    12.011   -4.369965    1.408461    6.517325
  13 C     6.0000    0    12.011   -4.486296    0.181785    4.308550
  14 O     8.0000    0    15.999   -9.385735   -4.261263    5.399617
  15 H     1.0000    0     1.008   -3.297476    0.684706    2.731863
  16 H     1.0000    0     1.008   -3.063231    2.938819    6.818179
  17 N     7.0000    0    14.007   -5.961533    1.800735   10.692466
  18 O     8.0000    0    15.999   -7.782455    0.716466   12.336241
  19 H     1.0000    0     1.008   -7.548851    1.693054   13.853152
  20 O     8.0000    0    15.999  -10.167022   -7.079491   -2.104150
  21 H     1.0000    0     1.008  -10.935364   -6.000042    1.601997
  22 H     1.0000    0     1.008  -10.642052   -8.729441   -1.499079
  23 O     8.0000    0    15.999  -12.218859   -1.794629    0.772756
  24 H     1.0000    0     1.008  -10.651937   -2.549874   -2.705883
  25 C     6.0000    0    12.011  -13.520363    0.213719   -0.196398
  26 H     1.0000    0     1.008   -6.475415   -7.166354   -2.359342
  27 O     8.0000    0    15.999  -13.059745    1.171295   -2.213376
  28 C     6.0000    0    12.011  -15.646361    0.959678    1.557314
  29 C     6.0000    0    12.011  -17.997807   -0.563389    0.839636
  30 H     1.0000    0     1.008  -18.588094   -0.126897   -1.082713
  31 H     1.0000    0     1.008  -19.551727   -0.096112    2.104812
  32 H     1.0000    0     1.008  -17.657108   -2.587431    0.969833
  33 C     6.0000    0    12.011  -16.127332    3.788627    1.442217
  34 H     1.0000    0     1.008  -15.086449    0.418918    3.465349
  35 H     1.0000    0     1.008  -17.666897    4.296021    2.709688
  36 H     1.0000    0     1.008  -16.636182    4.366629   -0.462852
  37 H     1.0000    0     1.008  -14.461152    4.859398    1.998126
  38 H     1.0000    0     1.008   -8.863199   -1.876351    9.305247

--------------------------------
INTERNAL COORDINATES (ANGSTROEM)
--------------------------------
 O      0   0   0     0.000000000000     0.00000000     0.00000000
 C      1   0   0     1.404476213899     0.00000000     0.00000000
 C      2   1   0     1.528317668920   108.08593205     0.00000000
 C      3   2   1     1.546086180162   104.72784189   357.32065911
 C      1   2   3     1.420177367955   111.34641114   346.78027528
 O      4   3   2     1.414325818139   111.20192598   260.35301882
 H      4   3   2     1.087436808711   111.84672891   136.73185274
 N      5   1   2     1.463606911910   112.05563034   253.48682969
 H      5   1   2     1.085714075325   106.71583449   138.81842553
 C      8   5   1     1.391491330841   121.93742000    85.00984201
 N     10   8   5     1.373792527096   114.87756717   186.87324024
 C     11  10   8     1.388686115100   127.17860955     2.44726365
 C     12  11  10     1.430723983481   114.95779125   359.57708076
 C     13  12  11     1.338405550753   119.27698409   359.59136833
 O     10   8   5     1.219973259851   123.76206286     7.77418922
 H     14  13  12     1.078296651819   121.95091357   179.18589381
 H     13  12  11     1.076724572053   119.15922860   179.54085846
 N     12  11  10     1.292484556568   123.83334714   179.46490661
 O     18  12  11     1.419279845810   109.86562236     0.00000000
 H     19  18  12     0.962653491008   101.93740791   179.71673636
 O      3   2   1     1.428340582650   108.59477249   237.40619580
 H      3   2   1     1.082989147327   109.58720513   115.60884441
 H     21   3   2     0.963349404184   108.01649416   206.17895725
 O      2   1   3     1.432668653186   110.48381077   118.35949945
 H      2   1   3     1.085471298486   108.26211291   237.47232079
 C     24   2   1     1.366326024720   116.71670460    85.11532515
 H      6   4   3     0.971452969697   106.01592342   350.87705326
 O     26  24   2     1.206398834974   123.84549338     0.86682063
 C     26  24   2     1.510875136037   110.36580671   178.50267941
 C     29  26  24     1.530419712317   108.38553131   271.05702639
 H     30  29  26     1.088921616717   110.69227101   297.96116765
 H     30  29  26     1.088831030239   109.98989316   178.64854979
 H     30  29  26     1.088327384667   111.58536926    58.76048370
 C     29  26  24     1.519718614907   110.94405426   147.84820598
 H     29  26  24     1.090479483473   107.32805768    27.71443556
 H     34  29  26     1.088895545847   110.09129356   179.80708704
 H     34  29  26     1.087366405171   110.83748259    59.82486175
 H     34  29  26     1.088580981341   111.48533745   299.81258763
 H     11  10   8     1.007304168952   114.97913759   181.35699614

---------------------------
INTERNAL COORDINATES (A.U.)
---------------------------
 O      0   0   0     0.000000000000     0.00000000     0.00000000
 C      1   0   0     2.654075405876     0.00000000     0.00000000
 C      2   1   0     2.888101839892   108.08593205     0.00000000
 C      3   2   1     2.921679459946   104.72784189   357.32065911
 C      1   2   3     2.683746287027   111.34641114   346.78027528
 O      4   3   2     2.672688460417   111.20192598   260.35301882
 H      4   3   2     2.054957756409   111.84672891   136.73185274
 N      5   1   2     2.765816231224   112.05563034   253.48682969
 H      5   1   2     2.051702262107   106.71583449   138.81842553
 C      8   5   1     2.629537533016   121.93742000    85.00984201
 N     10   8   5     2.596091641039   114.87756717   186.87324024
 C     11  10   8     2.624236443517   127.17860955     2.44726365
 C     12  11  10     2.703676502012   114.95779125   359.57708076
 C     13  12  11     2.529219947043   119.27698409   359.59136833
 O     10   8   5     2.305415351825   123.76206286     7.77418922
 H     14  13  12     2.037685363062   121.95091357   179.18589381
 H     13  12  11     2.034714562843   119.15922860   179.54085846
 N     12  11  10     2.442441844236   123.83334714   179.46490661
 O     18  12  11     2.682050215974   109.86562236     0.00000000
 H     19  18  12     1.819151459869   101.93740791   179.71673636
 O      3   2   1     2.699172527174   108.59477249   237.40619580
 H      3   2   1     2.046552894457   109.58720513   115.60884441
 H     21   3   2     1.820466545185   108.01649416   206.17895725
 O      2   1   3     2.707351395176   110.48381077   118.35949945
 H      2   1   3     2.051243480370   108.26211291   237.47232079
 C     24   2   1     2.581981996371   116.71670460    85.11532515
 H      6   4   3     1.835780064713   106.01592342   350.87705326
 O     26  24   2     2.279763406382   123.84549338     0.86682063
 C     26  24   2     2.855140229661   110.36580671   178.50267941
 C     29  26  24     2.892074126234   108.38553131   271.05702639
 H     30  29  26     2.057763636901   110.69227101   297.96116765
 H     30  29  26     2.057592453267   109.98989316   178.64854979
 H     30  29  26     2.056640701067   111.58536926    58.76048370
 C     29  26  24     2.871851982796   110.94405426   147.84820598
 H     29  26  24     2.060707578424   107.32805768    27.71443556
 H     34  29  26     2.057714370097   110.09129356   179.80708704
 H     34  29  26     2.054824713000   110.83748259    59.82486175
 H     34  29  26     2.057119929330   111.48533745   299.81258763
 H     11  10   8     1.903529012876   114.97913759   181.35699614

---------------------
BASIS SET INFORMATION
---------------------
There are 4 groups of distinct atoms

 Group   1 Type O   : 11s6p2d contracted to 5s3p2d pattern {62111/411/11}
 Group   2 Type C   : 11s6p1d contracted to 5s3p1d pattern {62111/411/1}
 Group   3 Type H   : 5s contracted to 3s pattern {311}
 Group   4 Type N   : 11s6p1d contracted to 5s3p1d pattern {62111/411/1}

Atom   0O    basis set group =>   1
Atom   1C    basis set group =>   2
Atom   2C    basis set group =>   2
Atom   3C    basis set group =>   2
Atom   4C    basis set group =>   2
Atom   5O    basis set group =>   1
Atom   6H    basis set group =>   3
Atom   7N    basis set group =>   4
Atom   8H    basis set group =>   3
Atom   9C    basis set group =>   2
Atom  10N    basis set group =>   4
Atom  11C    basis set group =>   2
Atom  12C    basis set group =>   2
Atom  13C    basis set group =>   2
Atom  14O    basis set group =>   1
Atom  15H    basis set group =>   3
Atom  16H    basis set group =>   3
Atom  17N    basis set group =>   4
Atom  18O    basis set group =>   1
Atom  19H    basis set group =>   3
Atom  20O    basis set group =>   1
Atom  21H    basis set group =>   3
Atom  22H    basis set group =>   3
Atom  23O    basis set group =>   1
Atom  24H    basis set group =>   3
Atom  25C    basis set group =>   2
Atom  26H    basis set group =>   3
Atom  27O    basis set group =>   1
Atom  28C    basis set group =>   2
Atom  29C    basis set group =>   2
Atom  30H    basis set group =>   3
Atom  31H    basis set group =>   3
Atom  32H    basis set group =>   3
Atom  33C    basis set group =>   2
Atom  34H    basis set group =>   3
Atom  35H    basis set group =>   3
Atom  36H    basis set group =>   3
Atom  37H    basis set group =>   3
Atom  38H    basis set group =>   3
---------------------------------
AUXILIARY/J BASIS SET INFORMATION
---------------------------------
There are 4 groups of distinct atoms

 Group   1 Type O   : 8s3p3d contracted to 6s3p3d pattern {311111/111/111}
 Group   2 Type C   : 8s3p3d contracted to 6s3p3d pattern {311111/111/111}
 Group   3 Type H   : 5s2p contracted to 3s1p pattern {311/2}
 Group   4 Type N   : 8s3p3d contracted to 6s3p3d pattern {311111/111/111}

Atom   0O    basis set group =>   1
Atom   1C    basis set group =>   2
Atom   2C    basis set group =>   2
Atom   3C    basis set group =>   2
Atom   4C    basis set group =>   2
Atom   5O    basis set group =>   1
Atom   6H    basis set group =>   3
Atom   7N    basis set group =>   4
Atom   8H    basis set group =>   3
Atom   9C    basis set group =>   2
Atom  10N    basis set group =>   4
Atom  11C    basis set group =>   2
Atom  12C    basis set group =>   2
Atom  13C    basis set group =>   2
Atom  14O    basis set group =>   1
Atom  15H    basis set group =>   3
Atom  16H    basis set group =>   3
Atom  17N    basis set group =>   4
Atom  18O    basis set group =>   1
Atom  19H    basis set group =>   3
Atom  20O    basis set group =>   1
Atom  21H    basis set group =>   3
Atom  22H    basis set group =>   3
Atom  23O    basis set group =>   1
Atom  24H    basis set group =>   3
Atom  25C    basis set group =>   2
Atom  26H    basis set group =>   3
Atom  27O    basis set group =>   1
Atom  28C    basis set group =>   2
Atom  29C    basis set group =>   2
Atom  30H    basis set group =>   3
Atom  31H    basis set group =>   3
Atom  32H    basis set group =>   3
Atom  33C    basis set group =>   2
Atom  34H    basis set group =>   3
Atom  35H    basis set group =>   3
Atom  36H    basis set group =>   3
Atom  37H    basis set group =>   3
Atom  38H    basis set group =>   3


           ************************************************************
           *        Program running with 4 parallel MPI-processes     *
           *              working on a common directory               *
           ************************************************************
------------------------------------------------------------------------------
                           ORCA GTO INTEGRAL CALCULATION
                           -- RI-GTO INTEGRALS CHOSEN --
------------------------------------------------------------------------------
------------------------------------------------------------------------------
                   ___                                                        
                  /   \      - P O W E R E D   B Y -                         
                 /     \                                                     
                 |  |  |   _    _      __       _____    __    __             
                 |  |  |  | |  | |    /  \     |  _  \  |  |  /  |          
                  \  \/   | |  | |   /    \    | | | |  |  | /  /          
                 / \  \   | |__| |  /  /\  \   | |_| |  |  |/  /          
                |  |  |   |  __  | /  /__\  \  |    /   |      \           
                |  |  |   | |  | | |   __   |  |    \   |  |\   \          
                \     /   | |  | | |  |  |  |  | |\  \  |  | \   \       
                 \___/    |_|  |_| |__|  |__|  |_| \__\ |__|  \__/        
                                                                              
                      - O R C A' S   B I G   F R I E N D -                    
                                      &                                       
                       - I N T E G R A L  F E E D E R -                       
                                                                              
 v1 FN, 2020, v2 2021                                                         
------------------------------------------------------------------------------


Reading SHARK input file orca.SHARKINP.tmp ... ok
----------------------
SHARK INTEGRAL PACKAGE
----------------------

Number of atoms                             ...     39
Number of basis functions                   ...    504
Number of shells                            ...    256
Maximum angular momentum                    ...      2
Integral batch strategy                     ... SHARK/LIBINT Hybrid
RI-J (if used) integral strategy            ... SPLIT-RIJ (Revised 2003 algorithm where possible)
Printlevel                                  ...      1
Contraction scheme used                     ... SEGMENTED contraction
Coulomb Range Separation                    ... NOT USED
Exchange Range Separation                   ... NOT USED
Finite Nucleus Model                        ... NOT USED
Auxiliary Coulomb fitting basis             ... AVAILABLE
   # of basis functions in Aux-J            ...    762
   # of shells in Aux-J                     ...    332
   Maximum angular momentum in Aux-J        ...      2
Auxiliary J/K fitting basis                 ... NOT available
Auxiliary Correlation fitting basis         ... NOT available
Auxiliary 'external' fitting basis          ... NOT available
Integral threshold                          ...     2.500000e-11
Primitive cut-off                           ...     2.500000e-12
Primitive pair pre-selection threshold      ...     2.500000e-12

Calculating pre-screening integrals         ... done (  0.1 sec) Dimension = 256
Organizing shell pair data                  ... done (  0.1 sec)
Shell pair information
Total number of shell pairs                 ...     32896
Shell pairs after pre-screening             ...     23986
Total number of primitive shell pairs       ...    119851
Primitive shell pairs kept                  ...     54924
          la=0 lb=0:   8740 shell pairs
          la=1 lb=0:   8180 shell pairs
          la=1 lb=1:   1897 shell pairs
          la=2 lb=0:   3291 shell pairs
          la=2 lb=1:   1545 shell pairs
          la=2 lb=2:    333 shell pairs

Calculating one electron integrals          ... done (  0.0 sec)
Calculating RI/J V-Matrix + Cholesky decomp.... done (  0.0 sec)
Calculating Nuclear repulsion               ... done (  0.0 sec) ENN=   1977.904762652392 Eh

SHARK setup successfully completed in   0.3 seconds

Maximum memory used throughout the entire GTOINT-calculation: 34.1 MB


           ************************************************************
           *        Program running with 4 parallel MPI-processes     *
           *              working on a common directory               *
           ************************************************************
-------------------------------------------------------------------------------
                                 ORCA SCF
-------------------------------------------------------------------------------

------------
SCF SETTINGS
------------
Hamiltonian:
 Density Functional     Method          .... DFT(GTOs)
 Exchange Functional    Exchange        .... B973C
 Correlation Functional Correlation     .... B973C
 Gradients option       PostSCFGGA      .... off
   Density functional embedding theory  .... OFF
 RI-approximation to the Coulomb term is turned on
   Number of AuxJ basis functions       .... 762


General Settings:
 Integral files         IntName         .... orca
 Hartree-Fock type      HFTyp           .... RHF
 Total Charge           Charge          ....    0
 Multiplicity           Mult            ....    1
 Number of Electrons    NEL             ....  166
 Basis Dimension        Dim             ....  504
 Nuclear Repulsion      ENuc            ....   1977.9047626524 Eh

Convergence Acceleration:
 DIIS                   CNVDIIS         .... on
   Start iteration      DIISMaxIt       ....    12
   Startup error        DIISStart       ....  0.200000
   # of expansion vecs  DIISMaxEq       ....     5
   Bias factor          DIISBfac        ....   1.050
   Max. coefficient     DIISMaxC        ....  10.000
 Trust-Rad. Augm. Hess. CNVTRAH         .... auto
   Auto Start mean grad. ratio tolernc. ....  1.125000
   Auto Start start iteration           ....     1
   Auto Start num. interpolation iter.  ....    10
   Max. Number of Micro iterations      ....    16
   Max. Number of Macro iterations      .... Maxiter - #DIIS iter
   Number of Davidson start vectors     ....     2
   Converg. threshold I  (grad. norm)   ....   1.000e-05
   Converg. threshold II (energy diff.) ....   1.000e-08
   Grad. Scal. Fac. for Micro threshold ....   0.100
   Minimum threshold for Micro iter.    ....   0.010
   NR start threshold (gradient norm)   ....   0.001
   Initial trust radius                 ....   0.400
   Minimum AH scaling param. (alpha)    ....   1.000
   Maximum AH scaling param. (alpha)    .... 1000.000
   Orbital update algorithm             .... Taylor
   White noise on init. David. guess    .... on
   Maximum white noise                  ....   0.010
   Quad. conv. algorithm                .... NR
   COSX micro iterations for RIJONX calc.... off
 SOSCF                  CNVSOSCF        .... on
   Start iteration      SOSCFMaxIt      ....   150
   Startup grad/error   SOSCFStart      ....  0.003300
 Level Shifting         CNVShift        .... on
   Level shift para.    LevelShift      ....    0.2500
   Turn off err/grad.   ShiftErr        ....    0.0010
 Zerner damping         CNVZerner       .... off
 Static damping         CNVDamp         .... on
   Fraction old density DampFac         ....    0.7000
   Max. Damping (<1)    DampMax         ....    0.9800
   Min. Damping (>=0)   DampMin         ....    0.0000
   Turn off err/grad.   DampErr         ....    0.1000
 Fernandez-Rico         CNVRico         .... off

SCF Procedure:
 Maximum # iterations   MaxIter         ....   125
 SCF integral mode      SCFMode         .... Direct
   Integral package                     .... SHARK and LIBINT hybrid scheme
 Reset frequency        DirectResetFreq ....    20
 Integral Threshold     Thresh          ....  2.500e-11 Eh
 Primitive CutOff       TCut            ....  2.500e-12 Eh

Convergence Tolerance:
 Convergence Check Mode ConvCheckMode   .... Total+1el-Energy
 Convergence forced     ConvForced      .... 0
 Energy Change          TolE            ....  1.000e-08 Eh
 1-El. energy change                    ....  1.000e-05 Eh
 Orbital Gradient       TolG            ....  1.000e-05
 Orbital Rotation angle TolX            ....  1.000e-05
 DIIS Error             TolErr          ....  5.000e-07


Diagonalization of the overlap matrix:
Smallest eigenvalue                        ... 1.696e-05
Time for diagonalization                   ...    0.072 sec
Threshold for overlap eigenvalues          ... 1.000e-08
Number of eigenvalues below threshold      ... 0
Time for construction of square roots      ...    0.020 sec
Total time needed                          ...    0.096 sec

---------------------
INITIAL GUESS: MOREAD
---------------------
Guess MOs are being read from file: /data/pc5fprakt/05_molnupiravir/out_0001_molnupiravir_taut/molnupiravir_taut_qm_calcs/gas_000.016.orca.gbw
Input Geometry matches current geometry (good)
Input basis set matches current basis set (good)
MOs were renormalized
MOs were reorthogonalized (Cholesky)
                      ------------------
                      INITIAL GUESS DONE (   0.1 sec)
                      ------------------
-------------------
DFT GRID GENERATION
-------------------

General Integration Accuracy     IntAcc      ... 4.959
Radial Grid Type                 RadialGrid  ... OptM3 with GC (2021)
Angular Grid (max. ang.)         AngularGrid ... 6 (Lebedev-590)
Angular grid pruning method      GridPruning ... 4 (adaptive)
Weight generation scheme         WeightScheme... Becke
Basis function cutoff            BFCut       ... 1.0000e-11
Integration weight cutoff        WCut        ... 1.0000e-14
Angular grids for H and He will be reduced by one unit
Partially contracted basis set               ... off
Rotationally invariant grid construction     ... off

Total number of grid points                  ...   462060
Total number of batches                      ...     7239
Average number of points per batch           ...       63
Average number of grid points per atom       ...    11848
Time for grid setup =    5.290 sec

--------------
SCF ITERATIONS
--------------
ITER       Energy         Delta-E        Max-DP      RMS-DP      [F,P]     Damp
               ***  Starting incremental Fock matrix formation  ***
                      *** Initiating the SOSCF procedure ***
                      *** Re-Reading the Fockian *** 
                      *** Removing any level shift *** 
ITER      Energy       Delta-E        Grad      Rot      Max-DP    RMS-DP
  0  -1157.59949943 -1157.5994994335  0.000002  0.000002  0.001742  0.000007
               *** Restarting incremental Fock matrix formation ***
                  ***Gradient check signals convergence***
              ***Rediagonalizing the Fockian in SOSCF/NRSCF***

               *****************************************************
               *                     SUCCESS                       *
               *           SCF CONVERGED AFTER   1 CYCLES          *
               *****************************************************


----------------
TOTAL SCF ENERGY
----------------

Total Energy       :        -1157.59949943 Eh          -31499.88380 eV

Components:
Nuclear Repulsion  :         1977.90476265 Eh           53821.52483 eV
Electronic Energy  :        -3135.50426209 Eh          -85321.40863 eV
One Electron Energy:        -5515.50457699 Eh         -150084.50969 eV
Two Electron Energy:         2380.00031490 Eh           64763.10106 eV

Virial components:
Potential Energy   :        -2310.99682905 Eh          -62885.42075 eV
Kinetic Energy     :         1153.39732962 Eh           31385.53695 eV
Virial Ratio       :            2.00364330


DFT components:
N(Alpha)           :       82.999995123141 electrons
N(Beta)            :       82.999995123141 electrons
N(Total)           :      165.999990246283 electrons
E(XC)              :     -151.562586408366 Eh       
DFET-embed. en.    :        0.000000000000 Eh       

---------------
SCF CONVERGENCE
---------------

  Last Energy change         ...    4.0404e-10  Tolerance :   1.0000e-08
  Last MAX-Density change    ...    5.7483e-04  Tolerance :   1.0000e-07
  Last RMS-Density change    ...    3.8378e-06  Tolerance :   5.0000e-09
  Last Orbital Gradient      ...    1.7286e-06  Tolerance :   1.0000e-05
  Last Orbital Rotation      ...    6.8266e-06  Tolerance :   1.0000e-05

             **** THE GBW FILE WAS UPDATED (orca.gbw) ****
             **** DENSITY orca.scfp WAS UPDATED ****
             **** ENERGY FILE WAS UPDATED (orca.en.tmp) ****
             **** THE GBW FILE WAS UPDATED (orca.gbw) ****
             **** DENSITY orca.scfp WAS UPDATED ****
----------------
ORBITAL ENERGIES
----------------

  NO   OCC          E(Eh)            E(eV) 
   0   2.0000     -18.793179      -511.3884 
   1   2.0000     -18.791409      -511.3402 
   2   2.0000     -18.784382      -511.1490 
   3   2.0000     -18.776117      -510.9241 
   4   2.0000     -18.750910      -510.2382 
   5   2.0000     -18.731814      -509.7186 
   6   2.0000     -18.731406      -509.7075 
   7   2.0000     -14.059634      -382.5821 
   8   2.0000     -14.047094      -382.2409 
   9   2.0000     -14.026154      -381.6710 
  10   2.0000     -10.039719      -273.1946 
  11   2.0000     -10.012636      -272.4577 
  12   2.0000     -10.004807      -272.2446 
  13   2.0000     -10.000381      -272.1242 
  14   2.0000      -9.972940      -271.3775 
  15   2.0000      -9.964660      -271.1522 
  16   2.0000      -9.959732      -271.0181 
  17   2.0000      -9.957624      -270.9607 
  18   2.0000      -9.912806      -269.7412 
  19   2.0000      -9.909586      -269.6535 
  20   2.0000      -9.890006      -269.1207 
  21   2.0000      -9.881330      -268.8847 
  22   2.0000      -1.034935       -28.1620 
  23   2.0000      -1.009474       -27.4692 
  24   2.0000      -1.001410       -27.2497 
  25   2.0000      -0.991561       -26.9817 
  26   2.0000      -0.978651       -26.6304 
  27   2.0000      -0.947286       -25.7769 
  28   2.0000      -0.936751       -25.4903 
  29   2.0000      -0.913284       -24.8517 
  30   2.0000      -0.881664       -23.9913 
  31   2.0000      -0.791267       -21.5315 
  32   2.0000      -0.746521       -20.3139 
  33   2.0000      -0.735591       -20.0164 
  34   2.0000      -0.716838       -19.5062 
  35   2.0000      -0.694940       -18.9103 
  36   2.0000      -0.642217       -17.4756 
  37   2.0000      -0.630141       -17.1470 
  38   2.0000      -0.614740       -16.7279 
  39   2.0000      -0.593214       -16.1422 
  40   2.0000      -0.576103       -15.6766 
  41   2.0000      -0.556903       -15.1541 
  42   2.0000      -0.538854       -14.6630 
  43   2.0000      -0.531042       -14.4504 
  44   2.0000      -0.522386       -14.2148 
  45   2.0000      -0.491253       -13.3677 
  46   2.0000      -0.483166       -13.1476 
  47   2.0000      -0.471310       -12.8250 
  48   2.0000      -0.468441       -12.7469 
  49   2.0000      -0.457951       -12.4615 
  50   2.0000      -0.449563       -12.2332 
  51   2.0000      -0.444038       -12.0829 
  52   2.0000      -0.427329       -11.6282 
  53   2.0000      -0.424370       -11.5477 
  54   2.0000      -0.416674       -11.3383 
  55   2.0000      -0.415459       -11.3052 
  56   2.0000      -0.409262       -11.1366 
  57   2.0000      -0.406404       -11.0588 
  58   2.0000      -0.391715       -10.6591 
  59   2.0000      -0.389574       -10.6009 
  60   2.0000      -0.373457       -10.1623 
  61   2.0000      -0.370498       -10.0818 
  62   2.0000      -0.369723       -10.0607 
  63   2.0000      -0.355914        -9.6849 
  64   2.0000      -0.351205        -9.5568 
  65   2.0000      -0.343140        -9.3373 
  66   2.0000      -0.336100        -9.1457 
  67   2.0000      -0.327306        -8.9064 
  68   2.0000      -0.321146        -8.7388 
  69   2.0000      -0.311242        -8.4693 
  70   2.0000      -0.310611        -8.4522 
  71   2.0000      -0.305290        -8.3074 
  72   2.0000      -0.303685        -8.2637 
  73   2.0000      -0.297023        -8.0824 
  74   2.0000      -0.282313        -7.6821 
  75   2.0000      -0.269433        -7.3317 
  76   2.0000      -0.262581        -7.1452 
  77   2.0000      -0.256995        -6.9932 
  78   2.0000      -0.245951        -6.6927 
  79   2.0000      -0.241878        -6.5818 
  80   2.0000      -0.233750        -6.3607 
  81   2.0000      -0.230442        -6.2707 
  82   2.0000      -0.188745        -5.1360 
  83   0.0000      -0.061695        -1.6788 
  84   0.0000      -0.033567        -0.9134 
  85   0.0000      -0.029000        -0.7891 
  86   0.0000      -0.015103        -0.4110 
  87   0.0000       0.004838         0.1317 
  88   0.0000       0.026176         0.7123 
  89   0.0000       0.028994         0.7890 
  90   0.0000       0.046357         1.2614 
  91   0.0000       0.053838         1.4650 
  92   0.0000       0.057381         1.5614 
  93   0.0000       0.063799         1.7360 
  94   0.0000       0.067539         1.8378 
  95   0.0000       0.069776         1.8987 
  96   0.0000       0.071604         1.9484 
  97   0.0000       0.073515         2.0004 
  98   0.0000       0.078556         2.1376 
  99   0.0000       0.081506         2.2179 
 100   0.0000       0.087814         2.3895 
 101   0.0000       0.090835         2.4718 
 102   0.0000       0.093333         2.5397 
 103   0.0000       0.100520         2.7353 
 104   0.0000       0.104532         2.8445 
 105   0.0000       0.108281         2.9465 
 106   0.0000       0.113753         3.0954 
 107   0.0000       0.117853         3.2069 
 108   0.0000       0.125483         3.4146 
 109   0.0000       0.133492         3.6325 
 110   0.0000       0.139592         3.7985 
 111   0.0000       0.143025         3.8919 
 112   0.0000       0.148390         4.0379 
 113   0.0000       0.152642         4.1536 
 114   0.0000       0.160091         4.3563 
 115   0.0000       0.168933         4.5969 
 116   0.0000       0.169857         4.6220 
 117   0.0000       0.178219         4.8496 
 118   0.0000       0.184412         5.0181 
 119   0.0000       0.188017         5.1162 
 120   0.0000       0.190846         5.1932 
 121   0.0000       0.196811         5.3555 
 122   0.0000       0.204319         5.5598 
 123   0.0000       0.212711         5.7882 
 124   0.0000       0.216709         5.8970 
 125   0.0000       0.221571         6.0292 
 126   0.0000       0.224029         6.0961 
 127   0.0000       0.227655         6.1948 
 128   0.0000       0.233215         6.3461 
 129   0.0000       0.237903         6.4737 
 130   0.0000       0.242289         6.5930 
 131   0.0000       0.246395         6.7047 
 132   0.0000       0.247785         6.7426 
 133   0.0000       0.253834         6.9072 
 134   0.0000       0.256086         6.9685 
 135   0.0000       0.260959         7.1011 
 136   0.0000       0.261670         7.1204 
 137   0.0000       0.271002         7.3744 
 138   0.0000       0.274450         7.4682 
 139   0.0000       0.278030         7.5656 
 140   0.0000       0.279315         7.6006 
 141   0.0000       0.283806         7.7227 
 142   0.0000       0.290182         7.8963 
 143   0.0000       0.294046         8.0014 
 144   0.0000       0.299688         8.1549 
 145   0.0000       0.306143         8.3306 
 146   0.0000       0.309076         8.4104 
 147   0.0000       0.314531         8.5588 
 148   0.0000       0.318932         8.6786 
 149   0.0000       0.321586         8.7508 
 150   0.0000       0.324282         8.8242 
 151   0.0000       0.328430         8.9370 
 152   0.0000       0.335361         9.1256 
 153   0.0000       0.338917         9.2224 
 154   0.0000       0.340362         9.2617 
 155   0.0000       0.348247         9.4763 
 156   0.0000       0.356065         9.6890 
 157   0.0000       0.359533         9.7834 
 158   0.0000       0.361993         9.8503 
 159   0.0000       0.364787         9.9264 
 160   0.0000       0.369579        10.0568 
 161   0.0000       0.371352        10.1050 
 162   0.0000       0.379244        10.3197 
 163   0.0000       0.383355        10.4316 
 164   0.0000       0.384796        10.4708 
 165   0.0000       0.387011        10.5311 
 166   0.0000       0.391701        10.6587 
 167   0.0000       0.396246        10.7824 
 168   0.0000       0.396605        10.7922 
 169   0.0000       0.400999        10.9117 
 170   0.0000       0.405128        11.0241 
 171   0.0000       0.408846        11.1253 
 172   0.0000       0.419729        11.4214 
 173   0.0000       0.420489        11.4421 
 174   0.0000       0.423523        11.5247 
 175   0.0000       0.426081        11.5942 
 176   0.0000       0.432034        11.7562 
 177   0.0000       0.435064        11.8387 
 178   0.0000       0.438002        11.9187 
 179   0.0000       0.444361        12.0917 
 180   0.0000       0.446223        12.1424 
 181   0.0000       0.453740        12.3469 
 182   0.0000       0.458116        12.4660 
 183   0.0000       0.462054        12.5731 
 184   0.0000       0.462973        12.5981 
 185   0.0000       0.468372        12.7450 
 186   0.0000       0.471153        12.8207 
 187   0.0000       0.475969        12.9518 
 188   0.0000       0.483437        13.1550 
 189   0.0000       0.486598        13.2410 
 190   0.0000       0.491096        13.3634 
 191   0.0000       0.494495        13.4559 
 192   0.0000       0.498589        13.5673 
 193   0.0000       0.505034        13.7427 
 194   0.0000       0.509517        13.8647 
 195   0.0000       0.517109        14.0713 
 196   0.0000       0.518859        14.1189 
 197   0.0000       0.529181        14.3997 
 198   0.0000       0.530061        14.4237 
 199   0.0000       0.535703        14.5772 
 200   0.0000       0.548278        14.9194 
 201   0.0000       0.553730        15.0678 
 202   0.0000       0.556911        15.1543 
 203   0.0000       0.558143        15.1878 
 204   0.0000       0.562021        15.2934 
 205   0.0000       0.567137        15.4326 
 206   0.0000       0.571727        15.5575 
 207   0.0000       0.577968        15.7273 
 208   0.0000       0.585673        15.9370 
 209   0.0000       0.591336        16.0911 
 210   0.0000       0.600844        16.3498 
 211   0.0000       0.602314        16.3898 
 212   0.0000       0.607412        16.5285 
 213   0.0000       0.617113        16.7925 
 214   0.0000       0.622631        16.9427 
 215   0.0000       0.625226        17.0133 
 216   0.0000       0.628160        17.0931 
 217   0.0000       0.632289        17.2055 
 218   0.0000       0.647514        17.6198 
 219   0.0000       0.655891        17.8477 
 220   0.0000       0.668650        18.1949 
 221   0.0000       0.672064        18.2878 
 222   0.0000       0.684285        18.6203 
 223   0.0000       0.690523        18.7901 
 224   0.0000       0.699833        19.0434 
 225   0.0000       0.701179        19.0801 
 226   0.0000       0.710893        19.3444 
 227   0.0000       0.716142        19.4872 
 228   0.0000       0.726913        19.7803 
 229   0.0000       0.731500        19.9051 
 230   0.0000       0.742520        20.2050 
 231   0.0000       0.743279        20.2256 
 232   0.0000       0.751629        20.4529 
 233   0.0000       0.757452        20.6113 
 234   0.0000       0.759580        20.6692 
 235   0.0000       0.779544        21.2125 
 236   0.0000       0.788227        21.4487 
 237   0.0000       0.797113        21.6906 
 238   0.0000       0.805747        21.9255 
 239   0.0000       0.820512        22.3273 
 240   0.0000       0.828489        22.5443 
 241   0.0000       0.831102        22.6154 
 242   0.0000       0.841644        22.9023 
 243   0.0000       0.847609        23.0646 
 244   0.0000       0.865586        23.5538 
 245   0.0000       0.872830        23.7509 
 246   0.0000       0.880677        23.9644 
 247   0.0000       0.889185        24.1960 
 248   0.0000       0.912480        24.8298 
 249   0.0000       0.917036        24.9538 
 250   0.0000       0.920114        25.0376 
 251   0.0000       0.929405        25.2904 
 252   0.0000       0.932981        25.3877 
 253   0.0000       0.945318        25.7234 
 254   0.0000       0.959479        26.1087 
 255   0.0000       0.962831        26.2000 
 256   0.0000       0.978726        26.6325 
 257   0.0000       0.994639        27.0655 
 258   0.0000       0.999445        27.1963 
 259   0.0000       1.029692        28.0194 
 260   0.0000       1.064297        28.9610 
 261   0.0000       1.072123        29.1740 
 262   0.0000       1.080592        29.4044 
 263   0.0000       1.099598        29.9216 
 264   0.0000       1.127712        30.6866 
 265   0.0000       1.154774        31.4230 
 266   0.0000       1.180845        32.1324 
 267   0.0000       1.206673        32.8352 
 268   0.0000       1.231359        33.5070 
 269   0.0000       1.254658        34.1410 
 270   0.0000       1.269780        34.5525 
 271   0.0000       1.300992        35.4018 
 272   0.0000       1.324356        36.0376 
 273   0.0000       1.330375        36.2014 
 274   0.0000       1.340635        36.4805 
 275   0.0000       1.345707        36.6185 
 276   0.0000       1.363734        37.1091 
 277   0.0000       1.368622        37.2421 
 278   0.0000       1.380384        37.5622 
 279   0.0000       1.383856        37.6566 
 280   0.0000       1.400405        38.1070 
 281   0.0000       1.407804        38.3083 
 282   0.0000       1.415058        38.5057 
 283   0.0000       1.422183        38.6996 
 284   0.0000       1.430725        38.9320 
 285   0.0000       1.437506        39.1165 
 286   0.0000       1.452682        39.5295 
 287   0.0000       1.459282        39.7091 
 288   0.0000       1.467115        39.9222 
 289   0.0000       1.475998        40.1640 
 290   0.0000       1.492136        40.6031 
 291   0.0000       1.493765        40.6474 
 292   0.0000       1.503384        40.9091 
 293   0.0000       1.507328        41.0165 
 294   0.0000       1.513691        41.1896 
 295   0.0000       1.519299        41.3422 
 296   0.0000       1.522421        41.4272 
 297   0.0000       1.526609        41.5411 
 298   0.0000       1.541178        41.9376 
 299   0.0000       1.545626        42.0586 
 300   0.0000       1.557913        42.3930 
 301   0.0000       1.561463        42.4896 
 302   0.0000       1.573402        42.8144 
 303   0.0000       1.581479        43.0342 
 304   0.0000       1.587033        43.1854 
 305   0.0000       1.590262        43.2732 
 306   0.0000       1.597351        43.4661 
 307   0.0000       1.605593        43.6904 
 308   0.0000       1.615378        43.9567 
 309   0.0000       1.621307        44.1180 
 310   0.0000       1.623132        44.1677 
 311   0.0000       1.629749        44.3477 
 312   0.0000       1.635690        44.5094 
 313   0.0000       1.643900        44.7328 
 314   0.0000       1.650024        44.8994 
 315   0.0000       1.660028        45.1717 
 316   0.0000       1.669090        45.4182 
 317   0.0000       1.671508        45.4840 
 318   0.0000       1.691991        46.0414 
 319   0.0000       1.697939        46.2033 
 320   0.0000       1.715547        46.6824 
 321   0.0000       1.722492        46.8714 
 322   0.0000       1.735149        47.2158 
 323   0.0000       1.745354        47.4935 
 324   0.0000       1.747291        47.5462 
 325   0.0000       1.756135        47.7869 
 326   0.0000       1.763781        47.9949 
 327   0.0000       1.772681        48.2371 
 328   0.0000       1.779520        48.4232 
 329   0.0000       1.782321        48.4994 
 330   0.0000       1.785388        48.5829 
 331   0.0000       1.794541        48.8320 
 332   0.0000       1.799823        48.9757 
 333   0.0000       1.801888        49.0319 
 334   0.0000       1.821896        49.5763 
 335   0.0000       1.846680        50.2507 
 336   0.0000       1.850956        50.3671 
 337   0.0000       1.856242        50.5109 
 338   0.0000       1.865962        50.7754 
 339   0.0000       1.869389        50.8687 
 340   0.0000       1.880180        51.1623 
 341   0.0000       1.889215        51.4082 
 342   0.0000       1.906375        51.8751 
 343   0.0000       1.906941        51.8905 
 344   0.0000       1.911877        52.0248 
 345   0.0000       1.922834        52.3230 
 346   0.0000       1.928604        52.4800 
 347   0.0000       1.955114        53.2014 
 348   0.0000       1.962870        53.4124 
 349   0.0000       1.975912        53.7673 
 350   0.0000       1.982892        53.9572 
 351   0.0000       1.988321        54.1050 
 352   0.0000       2.007749        54.6336 
 353   0.0000       2.032435        55.3054 
 354   0.0000       2.036900        55.4269 
 355   0.0000       2.043681        55.6114 
 356   0.0000       2.050120        55.7866 
 357   0.0000       2.057685        55.9925 
 358   0.0000       2.067088        56.2483 
 359   0.0000       2.068395        56.2839 
 360   0.0000       2.088429        56.8290 
 361   0.0000       2.092788        56.9477 
 362   0.0000       2.103383        57.2360 
 363   0.0000       2.107428        57.3460 
 364   0.0000       2.115556        57.5672 
 365   0.0000       2.128015        57.9062 
 366   0.0000       2.138121        58.1812 
 367   0.0000       2.143709        58.3333 
 368   0.0000       2.160908        58.8013 
 369   0.0000       2.165626        58.9297 
 370   0.0000       2.168895        59.0186 
 371   0.0000       2.175575        59.2004 
 372   0.0000       2.200290        59.8729 
 373   0.0000       2.206755        60.0489 
 374   0.0000       2.212218        60.1975 
 375   0.0000       2.219266        60.3893 
 376   0.0000       2.231300        60.7168 
 377   0.0000       2.236254        60.8516 
 378   0.0000       2.238958        60.9251 
 379   0.0000       2.249810        61.2204 
 380   0.0000       2.269528        61.7570 
 381   0.0000       2.275109        61.9089 
 382   0.0000       2.278637        62.0049 
 383   0.0000       2.285118        62.1812 
 384   0.0000       2.294258        62.4299 
 385   0.0000       2.304781        62.7163 
 386   0.0000       2.310132        62.8619 
 387   0.0000       2.321446        63.1698 
 388   0.0000       2.335970        63.5650 
 389   0.0000       2.344879        63.8074 
 390   0.0000       2.358572        64.1800 
 391   0.0000       2.363808        64.3225 
 392   0.0000       2.374354        64.6095 
 393   0.0000       2.375617        64.6438 
 394   0.0000       2.388691        64.9996 
 395   0.0000       2.397651        65.2434 
 396   0.0000       2.408879        65.5489 
 397   0.0000       2.411503        65.6203 
 398   0.0000       2.423464        65.9458 
 399   0.0000       2.444091        66.5071 
 400   0.0000       2.480352        67.4938 
 401   0.0000       2.490571        67.7719 
 402   0.0000       2.499529        68.0156 
 403   0.0000       2.509699        68.2924 
 404   0.0000       2.520518        68.5868 
 405   0.0000       2.531663        68.8901 
 406   0.0000       2.541889        69.1683 
 407   0.0000       2.550911        69.4138 
 408   0.0000       2.555107        69.5280 
 409   0.0000       2.565256        69.8042 
 410   0.0000       2.579989        70.2051 
 411   0.0000       2.586632        70.3858 
 412   0.0000       2.602056        70.8055 
 413   0.0000       2.620362        71.3037 
 414   0.0000       2.629426        71.5503 
 415   0.0000       2.635460        71.7145 
 416   0.0000       2.651938        72.1629 
 417   0.0000       2.658120        72.3311 
 418   0.0000       2.659714        72.3745 
 419   0.0000       2.673424        72.7476 
 420   0.0000       2.683654        73.0259 
 421   0.0000       2.694009        73.3077 
 422   0.0000       2.696357        73.3716 
 423   0.0000       2.727201        74.2109 
 424   0.0000       2.732865        74.3650 
 425   0.0000       2.741751        74.6068 
 426   0.0000       2.745872        74.7190 
 427   0.0000       2.754065        74.9419 
 428   0.0000       2.761401        75.1416 
 429   0.0000       2.767921        75.3190 
 430   0.0000       2.802285        76.2540 
 431   0.0000       2.818869        76.7053 
 432   0.0000       2.829329        76.9900 
 433   0.0000       2.846053        77.4450 
 434   0.0000       2.850859        77.5758 
 435   0.0000       2.877263        78.2943 
 436   0.0000       2.883650        78.4681 
 437   0.0000       2.899320        78.8945 
 438   0.0000       2.901247        78.9470 
 439   0.0000       2.911807        79.2343 
 440   0.0000       2.939300        79.9824 
 441   0.0000       2.952942        80.3536 
 442   0.0000       2.976060        80.9827 
 443   0.0000       2.988096        81.3102 
 444   0.0000       3.016680        82.0880 
 445   0.0000       3.029853        82.4465 
 446   0.0000       3.043839        82.8271 
 447   0.0000       3.055440        83.1427 
 448   0.0000       3.107980        84.5724 
 449   0.0000       3.122745        84.9742 
 450   0.0000       3.133553        85.2683 
 451   0.0000       3.150437        85.7278 
 452   0.0000       3.155214        85.8577 
 453   0.0000       3.164883        86.1209 
 454   0.0000       3.184229        86.6473 
 455   0.0000       3.192122        86.8620 
 456   0.0000       3.213058        87.4318 
 457   0.0000       3.218617        87.5830 
 458   0.0000       3.243610        88.2631 
 459   0.0000       3.249122        88.4131 
 460   0.0000       3.272761        89.0564 
 461   0.0000       3.283493        89.3484 
 462   0.0000       3.317621        90.2770 
 463   0.0000       3.356093        91.3239 
 464   0.0000       3.375058        91.8400 
 465   0.0000       3.419451        93.0480 
 466   0.0000       3.455720        94.0349 
 467   0.0000       3.489799        94.9623 
 468   0.0000       3.497506        95.1720 
 469   0.0000       3.509087        95.4871 
 470   0.0000       3.547736        96.5388 
 471   0.0000       3.619098        98.4807 
 472   0.0000       3.669842        99.8615 
 473   0.0000       3.761293       102.3500 
 474   0.0000       3.790335       103.1403 
 475   0.0000       3.854739       104.8928 
 476   0.0000       3.868541       105.2683 
 477   0.0000       3.910914       106.4214 
 478   0.0000       3.935775       107.0979 
 479   0.0000       4.018890       109.3596 
 480   0.0000       4.042849       110.0115 
 481   0.0000       4.050041       110.2072 
 482   0.0000      21.459800       583.9509 
 483   0.0000      21.592777       587.5693 
 484   0.0000      21.732283       591.3655 
 485   0.0000      21.886529       595.5627 
 486   0.0000      21.924563       596.5977 
 487   0.0000      21.937544       596.9509 
 488   0.0000      22.048932       599.9819 
 489   0.0000      22.065647       600.4368 
 490   0.0000      22.098331       601.3262 
 491   0.0000      22.197577       604.0268 
 492   0.0000      22.303370       606.9055 
 493   0.0000      22.323878       607.4636 
 494   0.0000      31.617112       860.3453 
 495   0.0000      31.749594       863.9504 
 496   0.0000      31.868396       867.1831 
 497   0.0000      43.330289      1179.0771 
 498   0.0000      43.449526      1182.3217 
 499   0.0000      43.460678      1182.6252 
 500   0.0000      43.559173      1185.3054 
 501   0.0000      43.657892      1187.9916 
 502   0.0000      43.673449      1188.4150 
 503   0.0000      43.739855      1190.2220 

                    ********************************
                    * MULLIKEN POPULATION ANALYSIS *
                    ********************************

-----------------------
MULLIKEN ATOMIC CHARGES
-----------------------
   0 O :   -0.217875
   1 C :   -0.117490
   2 C :    0.211018
   3 C :   -0.099047
   4 C :   -0.095674
   5 O :   -0.555064
   6 H :    0.195225
   7 N :   -0.005377
   8 H :    0.193994
   9 C :    0.430566
  10 N :   -0.404995
  11 C :    0.166699
  12 C :   -0.187109
  13 C :   -0.084856
  14 O :   -0.467332
  15 H :    0.193352
  16 H :    0.189599
  17 N :   -0.050705
  18 O :   -0.581093
  19 H :    0.454349
  20 O :   -0.630843
  21 H :    0.184392
  22 H :    0.451015
  23 O :   -0.204310
  24 H :    0.182009
  25 C :    0.431036
  26 H :    0.423320
  27 O :   -0.390094
  28 C :   -0.188386
  29 C :   -0.553132
  30 H :    0.179949
  31 H :    0.182739
  32 H :    0.179253
  33 C :   -0.486680
  34 H :    0.181796
  35 H :    0.170229
  36 H :    0.175977
  37 H :    0.172192
  38 H :    0.371352
Sum of atomic charges:   -0.0000000

--------------------------------
MULLIKEN REDUCED ORBITAL CHARGES
--------------------------------
  0 O s       :     3.760011  s :     3.760011
      pz      :     1.620901  p :     4.436039
      px      :     1.235532
      py      :     1.579606
      dz2     :     0.007605  d :     0.021826
      dxz     :    -0.000391
      dyz     :     0.004104
      dx2y2   :     0.007129
      dxy     :     0.003380
  1 C s       :     3.321056  s :     3.321056
      pz      :     1.038286  p :     2.707684
      px      :     0.752057
      py      :     0.917341
      dz2     :     0.019056  d :     0.088750
      dxz     :     0.019349
      dyz     :     0.008727
      dx2y2   :     0.021875
      dxy     :     0.019743
  2 C s       :     2.976221  s :     2.976221
      pz      :     0.858973  p :     2.746871
      px      :     1.023015
      py      :     0.864883
      dz2     :     0.012077  d :     0.065889
      dxz     :     0.016545
      dyz     :     0.013464
      dx2y2   :     0.016078
      dxy     :     0.007724
  3 C s       :     3.251020  s :     3.251020
      pz      :     0.953804  p :     2.778640
      px      :     0.900074
      py      :     0.924762
      dz2     :     0.016112  d :     0.069387
      dxz     :     0.012744
      dyz     :     0.015189
      dx2y2   :     0.016486
      dxy     :     0.008857
  4 C s       :     3.161240  s :     3.161240
      pz      :     0.813609  p :     2.852904
      px      :     1.053203
      py      :     0.986092
      dz2     :     0.022863  d :     0.081530
      dxz     :     0.015648
      dyz     :     0.015515
      dx2y2   :     0.016224
      dxy     :     0.011280
  5 O s       :     3.812660  s :     3.812660
      pz      :     1.360827  p :     4.710174
      px      :     1.586498
      py      :     1.762848
      dz2     :     0.002092  d :     0.032230
      dxz     :     0.011353
      dyz     :     0.005126
      dx2y2   :     0.008756
      dxy     :     0.004903
  6 H s       :     0.804775  s :     0.804775
  7 N s       :     3.237323  s :     3.237323
      pz      :     1.138326  p :     3.720193
      px      :     1.295502
      py      :     1.286365
      dz2     :     0.011228  d :     0.047860
      dxz     :     0.011816
      dyz     :     0.009381
      dx2y2   :     0.008053
      dxy     :     0.007383
  8 H s       :     0.806006  s :     0.806006
  9 C s       :     2.968447  s :     2.968447
      pz      :     0.823615  p :     2.473636
      px      :     0.808466
      py      :     0.841555
      dz2     :     0.020319  d :     0.127351
      dxz     :     0.029626
      dyz     :     0.033387
      dx2y2   :     0.029140
      dxy     :     0.014879
 10 N s       :     3.345336  s :     3.345336
      pz      :     1.247703  p :     4.019397
      px      :     1.407194
      py      :     1.364499
      dz2     :     0.007905  d :     0.040262
      dxz     :     0.010085
      dyz     :     0.009550
      dx2y2   :     0.006084
      dxy     :     0.006637
 11 C s       :     3.080426  s :     3.080426
      pz      :     0.939467  p :     2.672985
      px      :     0.850455
      py      :     0.883063
      dz2     :     0.019306  d :     0.079890
      dxz     :     0.018866
      dyz     :     0.016592
      dx2y2   :     0.013690
      dxy     :     0.011436
 12 C s       :     3.092075  s :     3.092075
      pz      :     0.977216  p :     3.054712
      px      :     1.018344
      py      :     1.059153
      dz2     :     0.010109  d :     0.040323
      dxz     :     0.010037
      dyz     :     0.009257
      dx2y2   :     0.003497
      dxy     :     0.007422
 13 C s       :     3.144536  s :     3.144536
      pz      :     1.044383  p :     2.886250
      px      :     0.985166
      py      :     0.856701
      dz2     :     0.011594  d :     0.054071
      dxz     :     0.012932
      dyz     :     0.009168
      dx2y2   :     0.010909
      dxy     :     0.009469
 14 O s       :     3.853388  s :     3.853388
      pz      :     1.744759  p :     4.573361
      px      :     1.432475
      py      :     1.396127
      dz2     :     0.012154  d :     0.040582
      dxz     :     0.005469
      dyz     :     0.004916
      dx2y2   :     0.003468
      dxy     :     0.014576
 15 H s       :     0.806648  s :     0.806648
 16 H s       :     0.810401  s :     0.810401
 17 N s       :     3.581081  s :     3.581081
      pz      :     0.981145  p :     3.413092
      px      :     1.132593
      py      :     1.299354
      dz2     :     0.011660  d :     0.056533
      dxz     :     0.012599
      dyz     :     0.016205
      dx2y2   :     0.007709
      dxy     :     0.008360
 18 O s       :     3.836469  s :     3.836469
      pz      :     1.337532  p :     4.657060
      px      :     1.613065
      py      :     1.706463
      dz2     :     0.025775  d :     0.087564
      dxz     :     0.009283
      dyz     :     0.025895
      dx2y2   :     0.009460
      dxy     :     0.017151
 19 H s       :     0.545651  s :     0.545651
 20 O s       :     3.826016  s :     3.826016
      pz      :     1.537800  p :     4.752697
      px      :     1.867406
      py      :     1.347492
      dz2     :     0.008637  d :     0.052130
      dxz     :     0.004815
      dyz     :     0.013519
      dx2y2   :     0.017833
      dxy     :     0.007326
 21 H s       :     0.815608  s :     0.815608
 22 H s       :     0.548985  s :     0.548985
 23 O s       :     3.734267  s :     3.734267
      pz      :     1.605711  p :     4.438084
      px      :     1.395798
      py      :     1.436575
      dz2     :     0.004745  d :     0.031958
      dxz     :     0.007908
      dyz     :     0.006976
      dx2y2   :     0.010993
      dxy     :     0.001336
 24 H s       :     0.817991  s :     0.817991
 25 C s       :     3.099390  s :     3.099390
      pz      :     0.793083  p :     2.352069
      px      :     0.790910
      py      :     0.768076
      dz2     :     0.025784  d :     0.117505
      dxz     :     0.030538
      dyz     :     0.026079
      dx2y2   :     0.019134
      dxy     :     0.015970
 26 H s       :     0.576680  s :     0.576680
 27 O s       :     3.851636  s :     3.851636
      pz      :     1.337322  p :     4.505566
      px      :     1.615007
      py      :     1.553237
      dz2     :     0.011700  d :     0.032892
      dxz     :     0.003792
      dyz     :     0.009672
      dx2y2   :     0.003230
      dxy     :     0.004499
 28 C s       :     3.119145  s :     3.119145
      pz      :     1.070845  p :     3.018967
      px      :     0.979086
      py      :     0.969036
      dz2     :     0.010029  d :     0.050274
      dxz     :     0.011480
      dyz     :     0.007447
      dx2y2   :     0.011088
      dxy     :     0.010229
 29 C s       :     3.268296  s :     3.268296
      pz      :     1.131407  p :     3.247590
      px      :     1.020854
      py      :     1.095329
      dz2     :     0.009125  d :     0.037246
      dxz     :     0.009762
      dyz     :     0.002083
      dx2y2   :     0.010578
      dxy     :     0.005698
 30 H s       :     0.820051  s :     0.820051
 31 H s       :     0.817261  s :     0.817261
 32 H s       :     0.820747  s :     0.820747
 33 C s       :     3.231930  s :     3.231930
      pz      :     1.132058  p :     3.217519
      px      :     1.129438
      py      :     0.956022
      dz2     :     0.007906  d :     0.037231
      dxz     :     0.007831
      dyz     :     0.005406
      dx2y2   :     0.007484
      dxy     :     0.008604
 34 H s       :     0.818204  s :     0.818204
 35 H s       :     0.829771  s :     0.829771
 36 H s       :     0.824023  s :     0.824023
 37 H s       :     0.827808  s :     0.827808
 38 H s       :     0.628648  s :     0.628648


                     *******************************
                     * LOEWDIN POPULATION ANALYSIS *
                     *******************************

----------------------
LOEWDIN ATOMIC CHARGES
----------------------
   0 O :   -0.627135
   1 C :    0.346587
   2 C :    0.173177
   3 C :    0.148201
   4 C :    0.210636
   5 O :   -0.689887
   6 H :    0.201668
   7 N :   -0.052771
   8 H :    0.209954
   9 C :    0.312088
  10 N :   -0.146346
  11 C :    0.094238
  12 C :   -0.190768
  13 C :   -0.047722
  14 O :   -0.559878
  15 H :    0.182989
  16 H :    0.191761
  17 N :    0.082379
  18 O :   -0.687076
  19 H :    0.363002
  20 O :   -0.683060
  21 H :    0.225908
  22 H :    0.370313
  23 O :   -0.570868
  24 H :    0.235632
  25 C :    0.392771
  26 H :    0.377039
  27 O :   -0.407378
  28 C :   -0.152687
  29 C :   -0.391997
  30 H :    0.164589
  31 H :    0.158408
  32 H :    0.162325
  33 C :   -0.397358
  34 H :    0.183245
  35 H :    0.154569
  36 H :    0.170862
  37 H :    0.162226
  38 H :    0.330365

-------------------------------
LOEWDIN REDUCED ORBITAL CHARGES
-------------------------------
  0 O s       :     3.473835  s :     3.473835
      pz      :     1.653715  p :     4.642032
      px      :     1.365146
      py      :     1.623171
      dz2     :     0.089689  d :     0.511268
      dxz     :     0.108025
      dyz     :     0.068067
      dx2y2   :     0.127583
      dxy     :     0.117904
  1 C s       :     2.762612  s :     2.762612
      pz      :     0.984729  p :     2.707357
      px      :     0.802790
      py      :     0.919838
      dz2     :     0.038454  d :     0.183445
      dxz     :     0.041080
      dyz     :     0.015418
      dx2y2   :     0.045939
      dxy     :     0.042553
  2 C s       :     2.813757  s :     2.813757
      pz      :     0.943370  p :     2.880386
      px      :     1.015648
      py      :     0.921367
      dz2     :     0.024924  d :     0.132680
      dxz     :     0.030946
      dyz     :     0.029838
      dx2y2   :     0.033856
      dxy     :     0.013116
  3 C s       :     2.817575  s :     2.817575
      pz      :     0.960742  p :     2.894366
      px      :     0.962307
      py      :     0.971317
      dz2     :     0.031372  d :     0.139858
      dxz     :     0.027481
      dyz     :     0.029115
      dx2y2   :     0.035292
      dxy     :     0.016598
  4 C s       :     2.798717  s :     2.798717
      pz      :     0.852609  p :     2.826290
      px      :     0.997524
      py      :     0.976157
      dz2     :     0.047883  d :     0.164357
      dxz     :     0.030830
      dyz     :     0.031284
      dx2y2   :     0.032098
      dxy     :     0.022261
  5 O s       :     3.544040  s :     3.544040
      pz      :     1.446102  p :     4.814575
      px      :     1.603379
      py      :     1.765093
      dz2     :     0.077996  d :     0.331272
      dxz     :     0.086593
      dyz     :     0.058852
      dx2y2   :     0.063953
      dxy     :     0.043878
  6 H s       :     0.798332  s :     0.798332
  7 N s       :     3.067915  s :     3.067915
      pz      :     1.206054  p :     3.890481
      px      :     1.339379
      py      :     1.345049
      dz2     :     0.023084  d :     0.094374
      dxz     :     0.022731
      dyz     :     0.018565
      dx2y2   :     0.014627
      dxy     :     0.015367
  8 H s       :     0.790046  s :     0.790046
  9 C s       :     2.731404  s :     2.731404
      pz      :     0.888459  p :     2.680731
      px      :     0.893032
      py      :     0.899240
      dz2     :     0.044641  d :     0.275777
      dxz     :     0.063097
      dyz     :     0.072183
      dx2y2   :     0.056441
      dxy     :     0.039414
 10 N s       :     3.093248  s :     3.093248
      pz      :     1.238276  p :     3.976667
      px      :     1.385299
      py      :     1.353093
      dz2     :     0.015839  d :     0.076431
      dxz     :     0.017329
      dyz     :     0.019117
      dx2y2   :     0.011282
      dxy     :     0.012862
 11 C s       :     2.801037  s :     2.801037
      pz      :     1.029988  p :     2.936007
      px      :     0.962246
      py      :     0.943773
      dz2     :     0.039381  d :     0.168718
      dxz     :     0.038094
      dyz     :     0.038241
      dx2y2   :     0.026751
      dxy     :     0.026249
 12 C s       :     2.893723  s :     2.893723
      pz      :     1.068306  p :     3.217940
      px      :     1.065304
      py      :     1.084330
      dz2     :     0.021232  d :     0.079105
      dxz     :     0.020147
      dyz     :     0.020067
      dx2y2   :     0.006109
      dxy     :     0.011550
 13 C s       :     2.877068  s :     2.877068
      pz      :     1.109200  p :     3.059894
      px      :     0.982467
      py      :     0.968227
      dz2     :     0.024313  d :     0.110760
      dxz     :     0.023632
      dyz     :     0.020115
      dx2y2   :     0.021664
      dxy     :     0.021035
 14 O s       :     3.545500  s :     3.545500
      pz      :     1.704746  p :     4.701365
      px      :     1.511203
      py      :     1.485415
      dz2     :     0.047856  d :     0.313013
      dxz     :     0.059920
      dyz     :     0.062958
      dx2y2   :     0.063224
      dxy     :     0.079055
 15 H s       :     0.817011  s :     0.817011
 16 H s       :     0.808239  s :     0.808239
 17 N s       :     3.233556  s :     3.233556
      pz      :     1.088889  p :     3.571339
      px      :     1.167587
      py      :     1.314863
      dz2     :     0.025863  d :     0.112726
      dxz     :     0.027664
      dyz     :     0.032085
      dx2y2   :     0.012159
      dxy     :     0.014954
 18 O s       :     3.587018  s :     3.587018
      pz      :     1.359671  p :     4.729214
      px      :     1.652564
      py      :     1.716979
      dz2     :     0.094732  d :     0.370844
      dxz     :     0.068878
      dyz     :     0.091039
      dx2y2   :     0.052407
      dxy     :     0.063789
 19 H s       :     0.636998  s :     0.636998
 20 O s       :     3.547169  s :     3.547169
      pz      :     1.601005  p :     4.796587
      px      :     1.809520
      py      :     1.386061
      dz2     :     0.092972  d :     0.339305
      dxz     :     0.056767
      dyz     :     0.069814
      dx2y2   :     0.083658
      dxy     :     0.036094
 21 H s       :     0.774092  s :     0.774092
 22 H s       :     0.629687  s :     0.629687
 23 O s       :     3.458292  s :     3.458292
      pz      :     1.628375  p :     4.583868
      px      :     1.451848
      py      :     1.503645
      dz2     :     0.102974  d :     0.528708
      dxz     :     0.096644
      dyz     :     0.089659
      dx2y2   :     0.108534
      dxy     :     0.130897
 24 H s       :     0.764368  s :     0.764368
 25 C s       :     2.742232  s :     2.742232
      pz      :     0.940569  p :     2.606363
      px      :     0.853228
      py      :     0.812566
      dz2     :     0.055322  d :     0.258633
      dxz     :     0.066122
      dyz     :     0.063604
      dx2y2   :     0.039231
      dxy     :     0.034354
 26 H s       :     0.622961  s :     0.622961
 27 O s       :     3.531361  s :     3.531361
      pz      :     1.476918  p :     4.613943
      px      :     1.590990
      py      :     1.546035
      dz2     :     0.072045  d :     0.262074
      dxz     :     0.060966
      dyz     :     0.066781
      dx2y2   :     0.026075
      dxy     :     0.036207
 28 C s       :     2.878059  s :     2.878059
      pz      :     1.066788  p :     3.181197
      px      :     1.041975
      py      :     1.072434
      dz2     :     0.018776  d :     0.093432
      dxz     :     0.020611
      dyz     :     0.012563
      dx2y2   :     0.021784
      dxy     :     0.019699
 29 C s       :     2.980702  s :     2.980702
      pz      :     1.150883  p :     3.349846
      px      :     1.074705
      py      :     1.124257
      dz2     :     0.014372  d :     0.061449
      dxz     :     0.015975
      dyz     :     0.003200
      dx2y2   :     0.017477
      dxy     :     0.010426
 30 H s       :     0.835411  s :     0.835411
 31 H s       :     0.841592  s :     0.841592
 32 H s       :     0.837675  s :     0.837675
 33 C s       :     2.977532  s :     2.977532
      pz      :     1.152865  p :     3.358281
      px      :     1.141494
      py      :     1.063922
      dz2     :     0.012469  d :     0.061545
      dxz     :     0.011781
      dyz     :     0.009243
      dx2y2   :     0.013577
      dxy     :     0.014476
 34 H s       :     0.816755  s :     0.816755
 35 H s       :     0.845431  s :     0.845431
 36 H s       :     0.829138  s :     0.829138
 37 H s       :     0.837774  s :     0.837774
 38 H s       :     0.669635  s :     0.669635


                      *****************************
                      * MAYER POPULATION ANALYSIS *
                      *****************************

  NA   - Mulliken gross atomic population
  ZA   - Total nuclear charge
  QA   - Mulliken gross atomic charge
[...]
     60      -0.000150   0.017109  -0.000127
     61      -0.001870   0.057365  -0.000405
     62       0.000178  -0.018792   0.000111
     63       0.000593  -0.006870   0.000072
     64      -0.001884  -0.007325   0.000055
     65      -0.004814   0.006030  -0.000008
     66       0.009386  -0.267771   0.001878
     67       0.026140  -0.904773   0.006250
     68      -0.009508   0.323526  -0.002186
     69      -0.000037   0.000053  -0.000036
     70      -0.000037  -0.000020   0.000024
     71      -0.000000   0.000021  -0.000003
     72      -0.000563   0.000900  -0.000113
     73       0.001058  -0.001337  -0.000010
     74      -0.001158   0.003394  -0.000103
     75       0.000019  -0.000054   0.000038
     76       0.000009   0.000057  -0.000045
     77       0.000003   0.000000   0.000021
     78       0.579132   0.019190   0.000381
     79       0.354876   0.010834   0.000236
     80       0.730575   0.019587   0.000519
     81      -0.000005   0.000012  -0.000008
     82      -0.000013  -0.000016   0.000013
     83      -0.000007   0.000015  -0.000012
     84       0.000010   0.000005  -0.000003
     85      -0.000006  -0.000000  -0.000001
     86       0.000013  -0.000011   0.000005
     87       0.000001  -0.000005   0.000006
     88       0.000012  -0.000001   0.000001
     89       0.000002   0.000000   0.000001
     90      -0.000047   0.000008  -0.000013
     91       0.000041  -0.000008   0.000003
     92      -0.000082   0.000037  -0.000043
     93       0.000072   0.000075  -0.000081
     94      -0.000064  -0.000040   0.000016
     95      -0.000074  -0.000055   0.000047
     96       0.000017  -0.000053   0.000023
     97      -0.000195   0.000001   0.000015
     98       0.000073   0.000012  -0.000003
     99       0.000007  -0.000003   0.000005
    100       0.000000   0.000000  -0.000002
    101       0.000003  -0.000001  -0.000000
    102      -0.000012   0.000004   0.000024
    103       0.000025  -0.000008   0.000015
    104      -0.000099   0.000048  -0.000062
    105       0.000018   0.000046  -0.000085
    106      -0.000017  -0.000022   0.000028
    107      -0.000006  -0.000043   0.000058
    108      -0.000012  -0.000004  -0.000005
    109       0.000015  -0.000005   0.000009
    110      -0.000040   0.000030  -0.000046
    111      -0.000104   0.000009   0.000002
    112      -0.000101   0.000020  -0.000034
    113      -0.000030   0.000008  -0.000010
    114       0.003291  -0.000461   0.001741
    115       0.001556  -0.000225  -0.000387
    116      -0.003528   0.000522  -0.004413


-----------
IR SPECTRUM
-----------

 Mode   freq        T**2         TX        TY        TZ
       cm**-1       a.u.
  7     13.71    0.000121  (-0.002734  0.005714  0.008974)
  8     31.65    0.001936  (-0.008221  0.036999  0.022352)
  9     37.37    0.001553  ( 0.034907  0.015751  0.009318)
 10     44.64    0.001543  (-0.021268 -0.016275 -0.028729)
 11     63.88    0.001464  (-0.015529  0.030339 -0.017396)
 12     94.54    0.003082  ( 0.006593 -0.015292  0.052964)
 13    120.47    0.000977  ( 0.002233  0.028499 -0.012629)
 14    129.97    0.000201  ( 0.000258  0.005168  0.013212)
 15    149.09    0.000243  ( 0.010410  0.007662 -0.008686)
 16    154.37    0.000048  (-0.003511 -0.005919 -0.000455)
 17    205.55    0.004145  ( 0.054013  0.027525 -0.021682)
 18    214.63    0.000125  (-0.009435 -0.004899  0.003527)
 19    226.01    0.003776  ( 0.050580  0.034082  0.007461)
 20    232.96    0.001306  ( 0.024376  0.026010  0.005961)
 21    240.01    0.000628  ( 0.019873  0.003640 -0.014829)
 22    241.39    0.000825  ( 0.009367 -0.013518  0.023551)
 23    252.10    0.006876  (-0.082351 -0.003376  0.009119)
 24    263.49    0.000588  (-0.016489 -0.017604 -0.002458)
 25    289.22    0.022638  (-0.107475  0.095540 -0.044267)
 26    299.10    0.002229  (-0.021862 -0.021357  0.035984)
 27    311.05    0.001054  ( 0.021428 -0.009874  0.022303)
 28    333.52    0.003026  (-0.046998  0.020831 -0.019568)
 29    355.72    0.001355  (-0.014780 -0.027893 -0.018927)
 30    373.66    0.000915  ( 0.006655 -0.020273  0.021443)
 31    411.01    0.000451  ( 0.019539 -0.005269  0.006436)
 32    433.16    0.001410  (-0.000498  0.028620  0.024306)
 33    461.99    0.000846  ( 0.013756 -0.016496 -0.019601)
 34    503.25    0.004803  ( 0.038170 -0.024665 -0.052326)
 35    531.14    0.000583  ( 0.023771  0.002140  0.003690)
 36    555.61    0.007514  (-0.047248  0.065235 -0.032027)
 37    574.89    0.000270  ( 0.012991  0.009022 -0.004424)
 38    589.80    0.001804  (-0.014456 -0.032929 -0.022607)
 39    609.93    0.004235  ( 0.037725 -0.047273  0.024015)
 40    630.42    0.000443  ( 0.012953 -0.006774  0.015141)
 41    632.14    0.002845  ( 0.025499  0.019921  0.042398)
 42    657.14    0.000211  ( 0.012267 -0.007589 -0.001790)
 43    658.43    0.000078  (-0.000418 -0.004654 -0.007466)
 44    732.23    0.004731  ( 0.046654 -0.046775  0.019147)
 45    740.77    0.000770  (-0.023170 -0.015099 -0.002267)
 46    750.23    0.000453  ( 0.002589 -0.021061 -0.001699)
 47    757.01    0.000120  (-0.003964  0.009870 -0.002536)
 48    761.52    0.002203  ( 0.022117  0.007456  0.040719)
 49    784.08    0.006971  ( 0.056640 -0.011357  0.060279)
 50    819.76    0.000338  ( 0.005312  0.010758 -0.013919)
 51    870.60    0.003766  ( 0.009971 -0.032133 -0.051327)
 52    881.51    0.000810  (-0.025251  0.012725  0.003213)
 53    910.50    0.000028  ( 0.004353  0.000818  0.002846)
 54    919.80    0.000922  ( 0.028323 -0.007168 -0.008263)
 55    937.69    0.019227  (-0.003029 -0.025987 -0.136170)
 56    939.13    0.000088  (-0.003572 -0.008531 -0.001671)
 57    950.62    0.008384  (-0.056330  0.049806 -0.052249)
 58    969.78    0.013260  (-0.102540  0.052362 -0.002037)
 59    975.97    0.005861  (-0.069749  0.031235 -0.004533)
 60    994.44    0.003819  (-0.003948  0.035435  0.050480)
 61   1004.06    0.005785  (-0.057076 -0.014284 -0.048199)
 62   1037.53    0.008663  ( 0.053916  0.013723  0.074617)
 63   1058.51    0.010601  (-0.095704  0.030307 -0.022885)
 64   1086.20    0.003659  (-0.023304  0.052942 -0.017680)
 65   1097.84    0.003261  ( 0.006458 -0.032127 -0.046772)
 66   1117.63    0.000400  (-0.006543  0.018481 -0.003948)
 67   1118.46    0.001961  (-0.025880  0.030448  0.019087)
 68   1140.04    0.001832  (-0.035721  0.020439 -0.011764)
 69   1148.36    0.011070  ( 0.072405 -0.074572 -0.016323)
 70   1169.67    0.001518  ( 0.012322 -0.007217 -0.036249)
 71   1196.97    0.000886  (-0.019904  0.021775 -0.004005)
 72   1221.54    0.001696  ( 0.030343  0.012301  0.024974)
 73   1250.22    0.001471  (-0.012941 -0.020894 -0.029439)
 74   1263.05    0.002446  (-0.031694 -0.037894  0.002251)
 75   1276.11    0.006843  ( 0.000690  0.038908  0.072997)
 76   1309.21    0.002145  (-0.030454 -0.017545 -0.030164)
 77   1311.31    0.006046  (-0.044013 -0.016916  0.061824)
 78   1315.27    0.000158  (-0.005786 -0.008405 -0.007344)
 79   1329.22    0.000495  (-0.012892  0.016335  0.007857)
 80   1350.49    0.000319  (-0.000690  0.004885 -0.017156)
 81   1358.73    0.000391  ( 0.013995 -0.013971 -0.000268)
 82   1371.54    0.001061  (-0.027275  0.017482 -0.003334)
 83   1383.51    0.002206  ( 0.015169 -0.006830 -0.043928)
 84   1394.51    0.000631  (-0.008368  0.015216  0.018156)
 85   1398.69    0.001018  (-0.029582  0.002672  0.011662)
 86   1415.22    0.003037  (-0.047624  0.022432  0.016289)
 87   1419.53    0.000433  ( 0.007629  0.007728 -0.017748)
 88   1432.53    0.000439  ( 0.004333 -0.017960 -0.009876)
 89   1433.27    0.001108  (-0.024449 -0.016761 -0.015154)
 90   1445.93    0.001562  ( 0.030017  0.024120  0.008919)
 91   1484.61    0.001184  (-0.009503 -0.020510 -0.025935)
 92   1494.19    0.000118  (-0.007660 -0.007526 -0.001593)
 93   1495.76    0.000053  ( 0.004245  0.005903  0.000635)
 94   1508.39    0.000404  (-0.009666  0.010303 -0.014287)
 95   1520.08    0.000602  ( 0.016271 -0.006692 -0.017109)
 96   1636.77    0.000161  (-0.006743 -0.009061 -0.005778)
 97   1694.12    0.007054  ( 0.005196  0.036230  0.075596)
 98   1752.00    0.022650  (-0.085573 -0.097164 -0.076725)
 99   1778.99    0.007322  ( 0.014340  0.059625 -0.059675)
100   3001.95    0.000605  ( 0.018890  0.015291  0.003759)
101   3008.22    0.000574  ( 0.013934 -0.019102 -0.003859)
102   3020.52    0.000171  ( 0.007900 -0.002608  0.010069)
103   3052.57    0.000504  ( 0.002955 -0.006369  0.021318)
104   3074.32    0.000205  ( 0.004717  0.008704  0.010328)
105   3076.74    0.000859  (-0.025918 -0.000641  0.013652)
106   3078.06    0.000273  (-0.016389  0.001960 -0.000415)
107   3080.84    0.000540  (-0.010642  0.019921 -0.005465)
108   3090.52    0.000189  ( 0.001641 -0.011734 -0.006992)
109   3091.92    0.000741  (-0.006452  0.000115 -0.026437)
110   3114.81    0.000068  (-0.005619 -0.000036  0.005999)
111   3176.08    0.000067  ( 0.006095  0.005190  0.001675)
112   3202.56    0.000016  (-0.001670  0.000346  0.003649)
113   3572.32    0.000875  (-0.015295 -0.006144  0.024559)
114   3606.97    0.001769  ( 0.029673  0.015146  0.025675)
115   3762.28    0.000746  (-0.010476 -0.024985 -0.003396)
116   3777.69    0.002189  ( 0.002171 -0.016639 -0.043678)

* The epsilon (eps) is given for a Dirac delta lineshape.
** The dipole moment derivative (T) already includes vibrational overlap.

The first frequency considered to be a vibration is 7
The total number of vibrations considered is 110


--------------------------
THERMOCHEMISTRY AT 298.15K
--------------------------

Temperature         ... 298.15 K
Pressure            ... 1.00 atm
Total Mass          ... 315.28 AMU

Throughout the following assumptions are being made:
  (1) The electronic state is orbitally nondegenerate
  (2) There are no thermally accessible electronically excited states
  (3) Hindered rotations indicated by low frequency modes are not
      treated as such but are treated as vibrations and this may
      cause some error
  (4) All equations used are the standard statistical mechanics
      equations for an ideal gas
  (5) All vibrations are strictly harmonic

freq.      13.71  E(vib)   ...       0.57 
freq.      31.65  E(vib)   ...       0.55 
freq.      37.37  E(vib)   ...       0.54 
freq.      44.64  E(vib)   ...       0.53 
freq.      63.88  E(vib)   ...       0.51 
freq.      94.54  E(vib)   ...       0.47 
freq.     120.47  E(vib)   ...       0.44 
freq.     129.97  E(vib)   ...       0.43 
freq.     149.09  E(vib)   ...       0.40 
freq.     154.37  E(vib)   ...       0.40 
freq.     205.55  E(vib)   ...       0.35 
freq.     214.63  E(vib)   ...       0.34 
freq.     226.01  E(vib)   ...       0.33 
freq.     232.96  E(vib)   ...       0.32 
freq.     240.01  E(vib)   ...       0.31 
freq.     241.39  E(vib)   ...       0.31 
freq.     252.10  E(vib)   ...       0.30 
freq.     263.49  E(vib)   ...       0.29 
freq.     289.22  E(vib)   ...       0.27 
freq.     299.10  E(vib)   ...       0.26 
freq.     311.05  E(vib)   ...       0.26 
freq.     333.52  E(vib)   ...       0.24 
freq.     355.72  E(vib)   ...       0.22 
freq.     373.66  E(vib)   ...       0.21 
freq.     411.01  E(vib)   ...       0.19 
freq.     433.16  E(vib)   ...       0.17 
freq.     461.99  E(vib)   ...       0.16 
freq.     503.25  E(vib)   ...       0.14 
freq.     531.14  E(vib)   ...       0.13 
freq.     555.61  E(vib)   ...       0.12 
freq.     574.89  E(vib)   ...       0.11 
freq.     589.80  E(vib)   ...       0.10 
freq.     609.93  E(vib)   ...       0.10 
freq.     630.42  E(vib)   ...       0.09 
freq.     632.14  E(vib)   ...       0.09 
freq.     657.14  E(vib)   ...       0.08 
freq.     658.43  E(vib)   ...       0.08 
freq.     732.23  E(vib)   ...       0.06 
freq.     740.77  E(vib)   ...       0.06 
freq.     750.23  E(vib)   ...       0.06 
freq.     757.01  E(vib)   ...       0.06 
freq.     761.52  E(vib)   ...       0.06 
freq.     784.08  E(vib)   ...       0.05 
freq.     819.76  E(vib)   ...       0.05 
freq.     870.60  E(vib)   ...       0.04 
freq.     881.51  E(vib)   ...       0.04 
freq.     910.50  E(vib)   ...       0.03 
freq.     919.80  E(vib)   ...       0.03 
freq.     937.69  E(vib)   ...       0.03 
freq.     939.13  E(vib)   ...       0.03 
freq.     950.62  E(vib)   ...       0.03 
freq.     969.78  E(vib)   ...       0.03 
freq.     975.97  E(vib)   ...       0.03 
freq.     994.44  E(vib)   ...       0.02 
freq.    1004.06  E(vib)   ...       0.02 
freq.    1037.53  E(vib)   ...       0.02 
freq.    1058.51  E(vib)   ...       0.02 
freq.    1086.20  E(vib)   ...       0.02 
freq.    1097.84  E(vib)   ...       0.02 
freq.    1117.63  E(vib)   ...       0.01 
freq.    1118.46  E(vib)   ...       0.01 
freq.    1140.04  E(vib)   ...       0.01 
freq.    1148.36  E(vib)   ...       0.01 
freq.    1169.67  E(vib)   ...       0.01 
freq.    1196.97  E(vib)   ...       0.01 
freq.    1221.54  E(vib)   ...       0.01 
freq.    1250.22  E(vib)   ...       0.01 
freq.    1263.05  E(vib)   ...       0.01 
freq.    1276.11  E(vib)   ...       0.01 
freq.    1309.21  E(vib)   ...       0.01 
freq.    1311.31  E(vib)   ...       0.01 
freq.    1315.27  E(vib)   ...       0.01 
freq.    1329.22  E(vib)   ...       0.01 
freq.    1350.49  E(vib)   ...       0.01 
freq.    1358.73  E(vib)   ...       0.01 
freq.    1371.54  E(vib)   ...       0.01 
freq.    1383.51  E(vib)   ...       0.00 
freq.    1394.51  E(vib)   ...       0.00 
freq.    1398.69  E(vib)   ...       0.00 
freq.    1415.22  E(vib)   ...       0.00 
freq.    1419.53  E(vib)   ...       0.00 
freq.    1432.53  E(vib)   ...       0.00 
freq.    1433.27  E(vib)   ...       0.00 
freq.    1445.93  E(vib)   ...       0.00 
freq.    1484.61  E(vib)   ...       0.00 
freq.    1494.19  E(vib)   ...       0.00 
freq.    1495.76  E(vib)   ...       0.00 
freq.    1508.39  E(vib)   ...       0.00 
freq.    1520.08  E(vib)   ...       0.00 
freq.    1636.77  E(vib)   ...       0.00 
freq.    1694.12  E(vib)   ...       0.00 
freq.    1752.00  E(vib)   ...       0.00 
freq.    1778.99  E(vib)   ...       0.00 
freq.    3001.95  E(vib)   ...       0.00 
freq.    3008.22  E(vib)   ...       0.00 
freq.    3020.52  E(vib)   ...       0.00 
freq.    3052.57  E(vib)   ...       0.00 
freq.    3074.32  E(vib)   ...       0.00 
freq.    3076.74  E(vib)   ...       0.00 
freq.    3078.06  E(vib)   ...       0.00 
freq.    3080.84  E(vib)   ...       0.00 
freq.    3090.52  E(vib)   ...       0.00 
freq.    3091.92  E(vib)   ...       0.00 
freq.    3114.81  E(vib)   ...       0.00 
freq.    3176.08  E(vib)   ...       0.00 
freq.    3202.56  E(vib)   ...       0.00 
freq.    3572.32  E(vib)   ...       0.00 
freq.    3606.97  E(vib)   ...       0.00 
freq.    3762.28  E(vib)   ...       0.00 
freq.    3777.69  E(vib)   ...       0.00 

------------
INNER ENERGY
------------

The inner energy is: U= E(el) + E(ZPE) + E(vib) + E(rot) + E(trans)
    E(el)   - is the total energy from the electronic structure calculation
              = E(kin-el) + E(nuc-el) + E(el-el) + E(nuc-nuc)
    E(ZPE)  - the the zero temperature vibrational energy from the frequency calculation
    E(vib)  - the the finite temperature correction to E(ZPE) due to population
              of excited vibrational states
    E(rot)  - is the rotational thermal energy
    E(trans)- is the translational thermal energy

Summary of contributions to the inner energy U:
Electronic energy                ...  -1157.81041807 Eh
Zero point energy                ...      0.30443398 Eh     191.03 kcal/mol
Thermal vibrational correction   ...      0.01818403 Eh      11.41 kcal/mol
Thermal rotational correction    ...      0.00141627 Eh       0.89 kcal/mol
Thermal translational correction ...      0.00141627 Eh       0.89 kcal/mol
-----------------------------------------------------------------------
Total thermal energy                  -1157.48496752 Eh


Summary of corrections to the electronic energy:
(perhaps to be used in another calculation)
Total thermal correction                  0.02101658 Eh      13.19 kcal/mol
Non-thermal (ZPE) correction              0.30443398 Eh     191.03 kcal/mol
-----------------------------------------------------------------------
Total correction                          0.32545055 Eh     204.22 kcal/mol


--------
ENTHALPY
--------

The enthalpy is H = U + kB*T
                kB is Boltzmann's constant
Total free energy                 ...  -1157.48496752 Eh 
Thermal Enthalpy correction       ...      0.00094421 Eh       0.59 kcal/mol
-----------------------------------------------------------------------
Total Enthalpy                    ...  -1157.48402331 Eh


Note: Only C1 symmetry has been detected, increase convergence thresholds 
      if your molecule has a higher symmetry. Symmetry factor of 1.0 is   
      used for the rotational entropy correction. 
 

Note: Rotational entropy computed according to Herzberg 
Infrared and Raman Spectra, Chapter V,1, Van Nostrand Reinhold, 1945 
Point Group:  C1, Symmetry Number:   1  
Rotational constants in cm-1:     0.010778     0.007095     0.005060 

Vibrational entropy computed according to the QRRHO of S. Grimme
Chem.Eur.J. 2012 18 9955


-------
ENTROPY
-------

The entropy contributions are T*S = T*(S(el)+S(vib)+S(rot)+S(trans))
     S(el)   - electronic entropy
     S(vib)  - vibrational entropy
     S(rot)  - rotational entropy
     S(trans)- translational entropy
The entropies will be listed as multiplied by the temperature to get
units of energy

Electronic entropy                ...      0.00000000 Eh      0.00 kcal/mol
Vibrational entropy               ...      0.03231608 Eh     20.28 kcal/mol
Rotational entropy                ...      0.01648119 Eh     10.34 kcal/mol
Translational entropy             ...      0.02049754 Eh     12.86 kcal/mol
-----------------------------------------------------------------------
Final entropy term                ...      0.06929481 Eh     43.48 kcal/mol

In case the symmetry of your molecule has not been determined correctly
or in case you have a reason to use a different symmetry number we print 
out the resulting rotational entropy values for sn=1,12 :
 --------------------------------------------------------
|  sn= 1 | S(rot)=       0.01648119 Eh     10.34 kcal/mol|
|  sn= 2 | S(rot)=       0.01582673 Eh      9.93 kcal/mol|
|  sn= 3 | S(rot)=       0.01544390 Eh      9.69 kcal/mol|
|  sn= 4 | S(rot)=       0.01517227 Eh      9.52 kcal/mol|
|  sn= 5 | S(rot)=       0.01496159 Eh      9.39 kcal/mol|
|  sn= 6 | S(rot)=       0.01478944 Eh      9.28 kcal/mol|
|  sn= 7 | S(rot)=       0.01464390 Eh      9.19 kcal/mol|
|  sn= 8 | S(rot)=       0.01451782 Eh      9.11 kcal/mol|
|  sn= 9 | S(rot)=       0.01440661 Eh      9.04 kcal/mol|
|  sn=10 | S(rot)=       0.01430713 Eh      8.98 kcal/mol|
|  sn=11 | S(rot)=       0.01421714 Eh      8.92 kcal/mol|
|  sn=12 | S(rot)=       0.01413499 Eh      8.87 kcal/mol|
 --------------------------------------------------------


-------------------
GIBBS FREE ENERGY
-------------------

The Gibbs free energy is G = H - T*S

Total enthalpy                    ...  -1157.48402331 Eh 
Total entropy correction          ...     -0.06929481 Eh    -43.48 kcal/mol
-----------------------------------------------------------------------
Final Gibbs free energy         ...  -1157.55331811 Eh

For completeness - the Gibbs free energy minus the electronic energy
G-E(el)                           ...      0.25709996 Eh    161.33 kcal/mol


Timings for individual modules:

Sum of individual times         ...     1644.147 sec (=  27.402 min)
GTO integral calculation        ...        1.731 sec (=   0.029 min)   0.1 %
SCF iterations                  ...       14.376 sec (=   0.240 min)   0.9 %
Analytical frequency calculation...     1628.040 sec (=  27.134 min)  99.0 %
                             ****ORCA TERMINATED NORMALLY****
TOTAL RUN TIME: 0 days 0 hours 27 minutes 25 seconds 875 msec
