
                                 *****************
                                 * O   R   C   A *
                                 *****************

           --- An Ab Initio, DFT and Semiempirical electronic structure package ---

                  #######################################################
                  #                        -***-                        #
                  #          Department of theory and spectroscopy      #
                  #               Directorship: Frank Neese             #
                  #        Max Planck Institute fuer Kohlenforschung    #
                  #                Kaiser Wilhelm Platz 1               #
                  #                 D-45470 Muelheim/Ruhr               #
                  #                      Germany                        #
                  #                                                     #
                  #                  All rights reserved                #
                  #                        -***-                        #
                  #######################################################


                         Program Version 4.2.1 -  RELEASE  -


 With contributions from (in alphabetic order):
   Daniel Aravena         : Magnetic Suceptibility
   Michael Atanasov       : Ab Initio Ligand Field Theory (pilot matlab implementation)
   Alexander A. Auer      : GIAO ZORA, VPT2
   Ute Becker             : Parallelization
   Giovanni Bistoni       : ED, misc. LED, open-shell LED, HFLD
   Martin Brehm           : Molecular dynamics
   Dmytro Bykov           : SCF Hessian
   Vijay G. Chilkuri      : MRCI spin determinant printing, contributions to CSF-ICE
   Dipayan Datta          : RHF DLPNO-CCSD density
   Achintya Kumar Dutta   : EOM-CC, STEOM-CC
   Dmitry Ganyushin       : Spin-Orbit,Spin-Spin,Magnetic field MRCI
   Miquel Garcia          : C-PCM Hessian, Gaussian charge scheme
   Yang Guo               : DLPNO-NEVPT2, CIM, IAO-localization
   Andreas Hansen         : Spin unrestricted coupled pair/coupled cluster methods
   Benjamin Helmich-Paris : CASSCF linear response (MC-RPA)
   Lee Huntington         : MR-EOM, pCC
   Robert Izsak           : Overlap fitted RIJCOSX, COSX-SCS-MP3, EOM
   Christian Kollmar      : KDIIS, OOCD, Brueckner-CCSD(T), CCSD density
   Simone Kossmann        : Meta GGA functionals, TD-DFT gradient, OOMP2, MP2 Hessian
   Martin Krupicka        : AUTO-CI
   Lucas Lang             : DCDCAS
   Dagmar Lenk            : GEPOL surface, SMD
   Dimitrios Liakos       : Extrapolation schemes; Compound Job, initial MDCI parallelization
   Dimitrios Manganas     : Further ROCIS development; embedding schemes
   Dimitrios Pantazis     : SARC Basis sets
   Taras Petrenko         : DFT Hessian,TD-DFT gradient, ASA, ECA, R-Raman, ABS, FL, XAS/XES, NRVS
   Peter Pinski           : DLPNO-MP2, DLPNO-MP2 Gradient
   Christoph Reimann      : Effective Core Potentials
   Marius Retegan         : Local ZFS, SOC
   Christoph Riplinger    : Optimizer, TS searches, QM/MM, DLPNO-CCSD(T), (RO)-DLPNO pert. Triples
   Tobias Risthaus        : Range-separated hybrids, TD-DFT gradient, RPA, STAB
   Michael Roemelt        : Original ROCIS implementation
   Masaaki Saitow         : Open-shell DLPNO-CCSD energy and density
   Barbara Sandhoefer     : DKH picture change effects
   Avijit Sen             : IP-ROCIS
   Kantharuban Sivalingam : CASSCF convergence, NEVPT2, FIC-MRCI
   Bernardo de Souza      : ESD, SOC TD-DFT
   Georgi Stoychev        : AutoAux, RI-MP2 NMR
   Willem Van den Heuvel  : Paramagnetic NMR
   Boris Wezisla          : Elementary symmetry handling
   Frank Wennmohs         : Technical directorship


 We gratefully acknowledge several colleagues who have allowed us to
 interface, adapt or use parts of their codes:
   Stefan Grimme, W. Hujo, H. Kruse,             : VdW corrections, initial TS optimization,
                  C. Bannwarth                     DFT functionals, gCP, sTDA/sTD-DF
   Ed Valeev, F. Pavosevic, A. Kumar             : LibInt (2-el integral package), F12 methods
   Garnet Chan, S. Sharma, J. Yang, R. Olivares  : DMRG
   Ulf Ekstrom                                   : XCFun DFT Library
   Mihaly Kallay                                 : mrcc  (arbitrary order and MRCC methods)
   Andreas Klamt, Michael Diedenhofen            : otool_cosmo (COSMO solvation model)
   Jiri Pittner, Ondrej Demel                    : Mk-CCSD
   Frank Weinhold                                : gennbo (NPA and NBO analysis)
   Christopher J. Cramer and Donald G. Truhlar   : smd solvation model
   Lars Goerigk                                  : TD-DFT with DH, B97 family of functionals
   V. Asgeirsson, H. Jonsson                     : NEB implementation
   FAccTs GmbH                                   : IRC, NEB, NEB-TS, Multilevel, MM, QM/MM, CI optimization
   S Lehtola, MJT Oliveira, MAL Marques          : LibXC Library


 Your calculation uses the libint2 library for the computation of 2-el integrals
 For citations please refer to: http://libint.valeyev.net

 Your ORCA version has been built with support for libXC version: 4.2.3
 For citations please refer to: https://tddft.org/programs/libxc/

 This ORCA versions uses:
   CBLAS   interface :  Fast vector & matrix operations
   LAPACKE interface :  Fast linear algebra routines
   SCALAPACK package :  Parallel linear algebra routines


Your calculation utilizes the atom-pairwise dispersion correction
with the Becke-Johnson damping scheme (D3BJ)
Cite in your paper:
S.Grimme, S.Ehrlich, L.Goerigk, J Comput Chem, (2011), 32, 1456–1465 
S.Grimme, J.Antony, S.Ehrlich and H.Krieg, J.Chem.Phys., 132, (2010), 154104 
   

Your calculation employs the composite approach B97-3c by Grimme and coworkers.
For the correct reference, please check the publication list of the Grimme group:
http://www.thch.uni-bonn.de/tc/index.php?section=publikationen&subsection=grimme#2017
   

XCFun DFT library Copyright 2009-2010 Ulf Ekstrom and contributors.
See http://admol.org/xcfun for more information. This is free soft-
ware; see the source code for copying conditions. There is ABSOLUTELY
NO WARRANTY; not even for MERCHANTABILITY or FITNESS FOR A PARTICULAR
PURPOSE. For details see the documentation. Scientific users of this 
library should cite U. Ekstrom, L. Visscher, R. Bast, A. J. Thorvald-
sen and K. Ruud; J.Chem.Theor.Comp. 2010, DOI: 10.1021/ct100117s
XCFun Version 0.99 
----- Orbital basis set information -----
Your calculation utilizes the basis: def2-mTZVP
----- AuxJ basis set information -----
Your calculation utilizes the basis: def2-mTZVP/J
================================================================================
                                        WARNINGS
                       Please study these warnings very carefully!
================================================================================


INFO   : the flag for use of LIBINT has been found!

================================================================================
                                       INPUT FILE
================================================================================
NAME = orca.inp
|  1> !b97-3c freq
|  2>         !moread
|  3>             %moinp "/home/johannes/tmp/109_daza/13_1_II_with_nabh4/11_tsopt_oniom/high_high_000.009.orca.gbw" 
|  4> 
|  5>         %pal nprocs 6 end
|  6>         %maxcore 2000
|  7> 
|  8>         
|  9>         
| 10> 
| 11>         *xyz 0 1
| 12>         C -3.24583521 -4.83966022 1.14962870
| 13> C -4.37820815 -4.42528259 0.41378155
| 14> C -2.04102139 -4.22018183 0.92393876
| 15> C -1.92493670 -3.19034717 -0.01111652
| 16> C -3.07689437 -2.71218673 -0.74433337
| 17> C -4.29985122 -3.41573245 -0.51571555
| 18> O -3.00295554 -1.67746959 -1.47784597
| 19> C -0.71799032 -2.47612920 -0.32406833
| 20> N -2.11763261 0.36215925 0.45449107
| 21> N -0.14677346 -1.58317492 0.55616425
| 22> C -1.07755339 1.30562667 0.15708904
| 23> C 0.36791319 0.87118370 0.49327062
| 24> C 0.70542200 -0.52634515 -0.00155456
| 25> C -2.03434388 -0.34915860 1.68805733
| 26> C -0.79914074 -1.31602590 1.83578764
| 27> H -3.34118449 -5.67147978 1.83066640
| 28> H -1.15354819 -4.59678897 1.42039396
| 29> H -5.15234257 -3.08004468 -1.08822374
| 30> H -2.36957277 -0.24748152 -0.32567675
| 31> H -0.64931769 -2.15463683 -1.35749345
| 32> H -1.24977501 2.24959992 0.68819419
| 33> H -1.12547461 1.53919086 -0.90666129
| 34> H 0.52962389 0.94709262 1.58184267
| 35> H 1.76604512 -0.72234455 0.20226145
| 36> H 0.60789432 -0.55121142 -1.08478603
| 37> H -2.93353221 -0.95111073 1.78621259
| 38> H -2.01442510 0.34832752 2.52971732
| 39> H -1.14709403 -2.25677081 2.25439799
| 40> H -0.05714809 -0.89780656 2.52206770
| 41> H 0.29626606 -3.58671334 -0.53671865
| 42> Na 1.52833747 -2.99514035 1.64099974
| 43> B 1.39418471 -4.29543280 -0.47003421
| 44> H 1.26500064 -4.90670479 0.58376800
| 45> H 2.28031568 -3.44862665 -0.45144148
| 46> H 1.40424983 -5.00771467 -1.42993020
| 47> H -5.19313370 -4.91419527 0.62390843
| 48> H 1.00553569 1.50810431 0.02431920
| 49>         *
| 50>                                   ****END OF INPUT****
================================================================================

                       ****************************
                       * Single Point Calculation *
                       ****************************

---------------------------------
CARTESIAN COORDINATES (ANGSTROEM)
---------------------------------
  C     -3.245835   -4.839660    1.149629
  C     -4.378208   -4.425283    0.413782
  C     -2.041021   -4.220182    0.923939
  C     -1.924937   -3.190347   -0.011117
  C     -3.076894   -2.712187   -0.744333
  C     -4.299851   -3.415732   -0.515716
  O     -3.002956   -1.677470   -1.477846
  C     -0.717990   -2.476129   -0.324068
  N     -2.117633    0.362159    0.454491
  N     -0.146773   -1.583175    0.556164
  C     -1.077553    1.305627    0.157089
  C      0.367913    0.871184    0.493271
  C      0.705422   -0.526345   -0.001555
  C     -2.034344   -0.349159    1.688057
  C     -0.799141   -1.316026    1.835788
  H     -3.341184   -5.671480    1.830666
  H     -1.153548   -4.596789    1.420394
  H     -5.152343   -3.080045   -1.088224
  H     -2.369573   -0.247482   -0.325677
  H     -0.649318   -2.154637   -1.357493
  H     -1.249775    2.249600    0.688194
  H     -1.125475    1.539191   -0.906661
  H      0.529624    0.947093    1.581843
  H      1.766045   -0.722345    0.202261
  H      0.607894   -0.551211   -1.084786
  H     -2.933532   -0.951111    1.786213
  H     -2.014425    0.348328    2.529717
  H     -1.147094   -2.256771    2.254398
  H     -0.057148   -0.897807    2.522068
  H      0.296266   -3.586713   -0.536719
  Na     1.528337   -2.995140    1.641000
  B      1.394185   -4.295433   -0.470034
  H      1.265001   -4.906705    0.583768
  H      2.280316   -3.448627   -0.451441
  H      1.404250   -5.007715   -1.429930
  H     -5.193134   -4.914195    0.623908
  H      1.005536    1.508104    0.024319

----------------------------
CARTESIAN COORDINATES (A.U.)
----------------------------
  NO LB      ZA    FRAG     MASS         X           Y           Z
   0 C     6.0000    0    12.011   -6.133740   -9.145632    2.172483
   1 C     6.0000    0    12.011   -8.273614   -8.362572    0.781934
   2 C     6.0000    0    12.011   -3.856971   -7.974988    1.745991
   3 C     6.0000    0    12.011   -3.637603   -6.028882   -0.021007
   4 C     6.0000    0    12.011   -5.814488   -5.125290   -1.406586
   5 C     6.0000    0    12.011   -8.125541   -6.454799   -0.974561
   6 O     8.0000    0    15.999   -5.674764   -3.169958   -2.792724
   7 C     6.0000    0    12.011   -1.356805   -4.679206   -0.612400
   8 N     7.0000    0    14.007   -4.001746    0.684382    0.858864
   9 N     7.0000    0    14.007   -0.277362   -2.991767    1.050998
  10 C     6.0000    0    12.011   -2.036281    2.467277    0.296855
  11 C     6.0000    0    12.011    0.695255    1.646299    0.932146
  12 C     6.0000    0    12.011    1.333054   -0.994648   -0.002938
  13 C     6.0000    0    12.011   -3.844353   -0.659814    3.189966
  14 C     6.0000    0    12.011   -1.510157   -2.486929    3.469136
  15 H     1.0000    0     1.008   -6.313924  -10.717544    3.459458
  16 H     1.0000    0     1.008   -2.179890   -8.686672    2.684156
  17 H     1.0000    0     1.008   -9.736516   -5.820441   -2.056445
  18 H     1.0000    0     1.008   -4.477844   -0.467672   -0.615440
  19 H     1.0000    0     1.008   -1.227033   -4.071674   -2.565291
  20 H     1.0000    0     1.008   -2.361732    4.251128    1.300499
  21 H     1.0000    0     1.008   -2.126839    2.908649   -1.713342
  22 H     1.0000    0     1.008    1.000844    1.789746    2.989249
  23 H     1.0000    0     1.008    3.337342   -1.365033    0.382219
  24 H     1.0000    0     1.008    1.148754   -1.041639   -2.049949
  25 H     1.0000    0     1.008   -5.543572   -1.797339    3.375453
  26 H     1.0000    0     1.008   -3.806712    0.658244    4.780473
  27 H     1.0000    0     1.008   -2.167694   -4.264679    4.260195
  28 H     1.0000    0     1.008   -0.107994   -1.696609    4.766017
  29 H     1.0000    0     1.008    0.559862   -6.777906   -1.014251
  30 Na   11.0000    0    22.990    2.888139   -5.659995    3.101040
  31 B     5.0000    0    10.810    2.634627   -8.117192   -0.888236
  32 H     1.0000    0     1.008    2.390505   -9.272328    1.103162
  33 H     1.0000    0     1.008    4.309172   -6.516960   -0.853101
  34 H     1.0000    0     1.008    2.653648   -9.463209   -2.702176
  35 H     1.0000    0     1.008   -9.813600   -9.286483    1.179016
  36 H     1.0000    0     1.008    1.900187    2.849904    0.045957

--------------------------------
INTERNAL COORDINATES (ANGSTROEM)
--------------------------------
 C      0   0   0     0.000000000000     0.00000000     0.00000000
 C      1   0   0     1.412603385120     0.00000000     0.00000000
 C      1   2   0     1.373413909045   119.03219779     0.00000000
 C      3   1   2     1.395837905649   121.05206401     0.32176432
 C      4   3   1     1.446807115332   121.13832772     1.93463620
 C      2   1   3     1.374516697811   121.46767334   359.75316526
 O      5   4   3     1.270490946347   121.02510230   171.78399058
 C      4   3   1     1.436929263481   125.62409677   179.95480836
 N      7   5   4     2.945812100508   101.69292996   302.21452953
 N      8   4   3     1.377848120154   122.08706997   289.04639585
 C      9   7   5     1.435389676682   122.47649821   135.40717353
 C     11   9   7     1.546328678778   116.59124925   270.86095212
 C     10   8   4     1.467711325783   117.68478564   204.70955950
 C      9   7   5     1.426392587643   103.86022626   358.99191746
 C     10   8   4     1.460954375447   119.53399789   358.20069776
 H      1   2   3     1.079271798212   118.94517017   183.49812714
 H      3   1   2     1.084393555968   119.08174988   185.55356711
 H      6   2   1     1.080367256246   122.79138647   180.17341754
 H      9   7   5     1.021664103329     8.82060603   159.68238235
 H      8   4   3     1.084454126612   114.08458604   147.32591652
 H     11   9   7     1.096730807203   110.58640401   149.09363810
 H     11   9   7     1.090143769762   108.12847925    33.04889458
 H     12  11   9     1.103132640561   109.40444625   283.83761231
 H     13  10   8     1.097669409891   111.21711477   253.43590596
 H     13  10   8     1.087897236575   108.05030781     8.79159665
 H     14   9   7     1.086517590601   107.82334831   314.37306197
 H     14   9   7     1.093286414512   110.40726791   197.32742624
 H     15  10   8     1.086879525449   108.78544587    42.59827745
 H     15  10   8     1.093819377117   108.45448236   159.64778029
 H      8   4   3     1.518990880482   103.17535162    48.65093246
 Na    10   8   4     2.444690377877   101.14238929    96.15726029
 B     30   8   4     1.308493580244   161.64634214   227.24753770
 H     32  30   8     1.225088187643   103.03881025    82.47783684
 H     32  30   8     1.225828063506   103.48339484   323.39641522
 H     32  30   8     1.195343917285   106.79135196   201.99354721
 H      2   1   3     0.973289559384   114.29105093   179.58767631
 H     12  11   9     1.015945741794   108.07065601   165.66031747

---------------------------
INTERNAL COORDINATES (A.U.)
---------------------------
 C      0   0   0     0.000000000000     0.00000000     0.00000000
 C      1   0   0     2.669433533726     0.00000000     0.00000000
 C      1   2   0     2.595376156613   119.03219779     0.00000000
 C      3   1   2     2.637751369022   121.05206401     0.32176432
 C      4   3   1     2.734069216587   121.13832772     1.93463620
 C      2   1   3     2.597460125365   121.46767334   359.75316526
 O      5   4   3     2.400879944223   121.02510230   171.78399058
 C      4   3   1     2.715402781796   125.62409677   179.95480836
 N      7   5   4     5.566778111951   101.69292996   302.21452953
 N      8   4   3     2.603755601229   122.08706997   289.04639585
 C      9   7   5     2.712493384387   122.47649821   135.40717353
 C     11   9   7     2.922137715918   116.59124925   270.86095212
 C     10   8   4     2.773572449384   117.68478564   204.70955950
 C      9   7   5     2.695491350101   103.86022626   358.99191746
 C     10   8   4     2.760803663748   119.53399789   358.20069776
 H      1   2   3     2.039528122686   118.94517017   183.49812714
 H      3   1   2     2.049206842168   119.08174988   185.55356711
 H      6   2   1     2.041598238362   122.79138647   180.17341754
 H      9   7   5     1.930665356150     8.82060603   159.68238235
 H      8   4   3     2.049321304098   114.08458604   147.32591652
 H     11   9   7     2.072520868248   110.58640401   149.09363810
 H     11   9   7     2.060073171451   108.12847925    33.04889458
 H     12  11   9     2.084618580050   109.40444625   283.83761231
 H     13  10   8     2.074294570278   111.21711477   253.43590596
 H     13  10   8     2.055827838977   108.05030781     8.79159665
 H     14   9   7     2.053220685924   107.82334831   314.37306197
 H     14   9   7     2.066011909364   110.40726791   197.32742624
 H     15  10   8     2.053904643665   108.78544587    42.59827745
 H     15  10   8     2.067019062728   108.45448236   159.64778029
 H      8   4   3     2.870476764034   103.17535162    48.65093246
 Na    10   8   4     4.619795296420   101.14238929    96.15726029
 B     30   8   4     2.472694514654   161.64634214   227.24753770
 H     32  30   8     2.315081164546   103.03881025    82.47783684
 H     32  30   8     2.316479327302   103.48339484   323.39641522
 H     32  30   8     2.258872639517   106.79135196   201.99354721
 H      2   1   3     1.839250716241   114.29105093   179.58767631
 H     12  11   9     1.919859218914   108.07065601   165.66031747

---------------------
BASIS SET INFORMATION
---------------------
There are 6 groups of distinct atoms

 Group   1 Type C   : 11s6p1d contracted to 5s3p1d pattern {62111/411/1}
 Group   2 Type O   : 11s6p2d contracted to 5s3p2d pattern {62111/411/11}
 Group   3 Type N   : 11s6p1d contracted to 5s3p1d pattern {62111/411/1}
 Group   4 Type H   : 5s contracted to 3s pattern {311}
 Group   5 Type Na  : 14s7p contracted to 5s3p pattern {73211/511}
 Group   6 Type B   : 11s6p1d contracted to 5s3p1d pattern {62111/411/1}

Atom   0C    basis set group =>   1
Atom   1C    basis set group =>   1
Atom   2C    basis set group =>   1
Atom   3C    basis set group =>   1
Atom   4C    basis set group =>   1
Atom   5C    basis set group =>   1
Atom   6O    basis set group =>   2
Atom   7C    basis set group =>   1
Atom   8N    basis set group =>   3
Atom   9N    basis set group =>   3
Atom  10C    basis set group =>   1
Atom  11C    basis set group =>   1
Atom  12C    basis set group =>   1
Atom  13C    basis set group =>   1
Atom  14C    basis set group =>   1
Atom  15H    basis set group =>   4
Atom  16H    basis set group =>   4
Atom  17H    basis set group =>   4
Atom  18H    basis set group =>   4
Atom  19H    basis set group =>   4
Atom  20H    basis set group =>   4
Atom  21H    basis set group =>   4
Atom  22H    basis set group =>   4
Atom  23H    basis set group =>   4
Atom  24H    basis set group =>   4
Atom  25H    basis set group =>   4
Atom  26H    basis set group =>   4
Atom  27H    basis set group =>   4
Atom  28H    basis set group =>   4
Atom  29H    basis set group =>   4
Atom  30Na   basis set group =>   5
Atom  31B    basis set group =>   6
Atom  32H    basis set group =>   4
Atom  33H    basis set group =>   4
Atom  34H    basis set group =>   4
Atom  35H    basis set group =>   4
Atom  36H    basis set group =>   4
---------------------------------
AUXILIARY/J BASIS SET INFORMATION
---------------------------------
There are 6 groups of distinct atoms

 Group   1 Type C   : 8s3p3d contracted to 6s3p3d pattern {311111/111/111}
 Group   2 Type O   : 8s3p3d contracted to 6s3p3d pattern {311111/111/111}
 Group   3 Type N   : 8s3p3d contracted to 6s3p3d pattern {311111/111/111}
 Group   4 Type H   : 5s2p contracted to 3s1p pattern {311/2}
 Group   5 Type Na  : 14s5p5d2f1g contracted to 8s4p4d1f1g pattern {71111111/2111/2111/2/1}
 Group   6 Type B   : 8s3p3d contracted to 6s3p3d pattern {311111/111/111}

Atom   0C    basis set group =>   1
Atom   1C    basis set group =>   1
Atom   2C    basis set group =>   1
Atom   3C    basis set group =>   1
Atom   4C    basis set group =>   1
Atom   5C    basis set group =>   1
Atom   6O    basis set group =>   2
Atom   7C    basis set group =>   1
Atom   8N    basis set group =>   3
Atom   9N    basis set group =>   3
Atom  10C    basis set group =>   1
Atom  11C    basis set group =>   1
Atom  12C    basis set group =>   1
Atom  13C    basis set group =>   1
Atom  14C    basis set group =>   1
Atom  15H    basis set group =>   4
Atom  16H    basis set group =>   4
Atom  17H    basis set group =>   4
Atom  18H    basis set group =>   4
Atom  19H    basis set group =>   4
Atom  20H    basis set group =>   4
Atom  21H    basis set group =>   4
Atom  22H    basis set group =>   4
Atom  23H    basis set group =>   4
Atom  24H    basis set group =>   4
Atom  25H    basis set group =>   4
Atom  26H    basis set group =>   4
Atom  27H    basis set group =>   4
Atom  28H    basis set group =>   4
Atom  29H    basis set group =>   4
Atom  30Na   basis set group =>   5
Atom  31B    basis set group =>   6
Atom  32H    basis set group =>   4
Atom  33H    basis set group =>   4
Atom  34H    basis set group =>   4
Atom  35H    basis set group =>   4
Atom  36H    basis set group =>   4


           ************************************************************
           *        Program running with 6 parallel MPI-processes     *
           *              working on a common directory               *
           ************************************************************
------------------------------------------------------------------------------
                           ORCA GTO INTEGRAL CALCULATION
                           -- RI-GTO INTEGRALS CHOSEN --
------------------------------------------------------------------------------

                         BASIS SET STATISTICS AND STARTUP INFO

Gaussian basis set:
 # of primitive gaussian shells          ...  410
 # of primitive gaussian functions       ...  684
 # of contracted shells                  ...  213
 # of contracted basis functions         ...  383
 Highest angular momentum                ...    2
 Maximum contraction depth               ...    7
Auxiliary gaussian basis set:
 # of primitive gaussian shells          ...  391
 # of primitive gaussian functions       ...  809
 # of contracted shells                  ...  290
 # of contracted aux-basis functions     ...  656
 Highest angular momentum                ...    4
 Maximum contraction depth               ...    7
Ratio of auxiliary to basis functions    ...  1.71
Integral package used                  ... LIBINT
 One Electron integrals                  ... done
 Ordering auxiliary basis shells         ... done
 Integral threshhold             Thresh  ...  1.000e-10
 Primitive cut-off               TCut    ...  1.000e-11
 Pre-screening matrix                    ... done
 Shell pair data                         ... 
 Ordering of the shell pairs             ... done (   0.005 sec) 19239 of 22791 pairs
 Determination of significant pairs      ... done (   0.000 sec)
 Creation of shell pair data             ... done (   0.002 sec)
 Storage of shell pair data              ... done (   0.032 sec)
 Shell pair data done in (   0.040 sec)
 Computing two index integrals           ... done
 Cholesky decomposition of the V-matrix  ... done


Timings:
 Total evaluation time                   ...   0.503 sec (  0.008 min)
 One electron matrix time                ...   0.222 sec (  0.004 min) = 44.1%
 Schwartz matrix evaluation time         ...   0.205 sec (  0.003 min) = 40.9%
 Two index repulsion integral time       ...   0.009 sec (  0.000 min) =  1.9%
 Cholesky decomposition of V             ...   0.009 sec (  0.000 min) =  1.8%
 Three index repulsion integral time     ...   0.000 sec (  0.000 min) =  0.0%



           ************************************************************
           *        Program running with 6 parallel MPI-processes     *
           *              working on a common directory               *
           ************************************************************
-------------------------------------------------------------------------------
                                 ORCA SCF
-------------------------------------------------------------------------------

------------
SCF SETTINGS
------------
Hamiltonian:
 Density Functional     Method          .... DFT(GTOs)
 Exchange Functional    Exchange        .... B973C
 Correlation Functional Correlation     .... B973C
 Gradients option       PostSCFGGA      .... off
   Density functional embedding theory  .... OFF
 RI-approximation to the Coulomb term is turned on
   Number of auxiliary basis functions  .... 656


General Settings:
 Integral files         IntName         .... orca
 Hartree-Fock type      HFTyp           .... RHF
 Total Charge           Charge          ....    0
 Multiplicity           Mult            ....    1
 Number of Electrons    NEL             ....  130
 Basis Dimension        Dim             ....  383
 Nuclear Repulsion      ENuc            ....   1337.3828195525 Eh

Convergence Acceleration:
 DIIS                   CNVDIIS         .... on
   Start iteration      DIISMaxIt       ....    12
   Startup error        DIISStart       ....  0.200000
   # of expansion vecs  DIISMaxEq       ....     5
   Bias factor          DIISBfac        ....   1.050
   Max. coefficient     DIISMaxC        ....  10.000
 Newton-Raphson         CNVNR           .... off
 SOSCF                  CNVSOSCF        .... on
   Start iteration      SOSCFMaxIt      ....   150
   Startup grad/error   SOSCFStart      ....  0.003300
 Level Shifting         CNVShift        .... on
   Level shift para.    LevelShift      ....    0.2500
   Turn off err/grad.   ShiftErr        ....    0.0010
 Zerner damping         CNVZerner       .... off
 Static damping         CNVDamp         .... on
   Fraction old density DampFac         ....    0.7000
   Max. Damping (<1)    DampMax         ....    0.9800
   Min. Damping (>=0)   DampMin         ....    0.0000
   Turn off err/grad.   DampErr         ....    0.1000
 Fernandez-Rico         CNVRico         .... off

SCF Procedure:
 Maximum # iterations   MaxIter         ....   125
 SCF integral mode      SCFMode         .... Direct
   Integral package                     .... LIBINT
 Reset frequency        DirectResetFreq ....    20
 Integral Threshold     Thresh          ....  1.000e-10 Eh
 Primitive CutOff       TCut            ....  1.000e-11 Eh

Convergence Tolerance:
 Convergence Check Mode ConvCheckMode   .... Total+1el-Energy
 Convergence forced     ConvForced      .... 0
 Energy Change          TolE            ....  1.000e-06 Eh
 1-El. energy change                    ....  1.000e-03 Eh
 Orbital Gradient       TolG            ....  5.000e-05
 Orbital Rotation angle TolX            ....  5.000e-05
 DIIS Error             TolErr          ....  1.000e-06


Diagonalization of the overlap matrix:
Smallest eigenvalue                        ... 1.053e-05
Time for diagonalization                   ...    0.025 sec
Threshold for overlap eigenvalues          ... 1.000e-08
Number of eigenvalues below threshold      ... 0
Time for construction of square roots      ...    0.015 sec
Total time needed                          ...    0.042 sec

---------------------
INITIAL GUESS: MOREAD
---------------------
Guess MOs are being read from file: /home/johannes/tmp/109_daza/13_1_II_with_nabh4/11_tsopt_oniom/high_high_000.009.orca.gbw
Input Geometry matches current geometry (good)
Input basis set matches current basis set (good)
MOs were renormalized
MOs were reorthogonalized (Cholesky)
                      ------------------
                      INITIAL GUESS DONE (   0.0 sec)
                      ------------------
-------------------
DFT GRID GENERATION
-------------------

General Integration Accuracy     IntAcc      ...  4.340
Radial Grid Type                 RadialGrid  ... Gauss-Chebyshev
Angular Grid (max. acc.)         AngularGrid ... Lebedev-194
Angular grid pruning method      GridPruning ... 3 (G Style)
Weight generation scheme         WeightScheme... Becke
Basis function cutoff            BFCut       ...    1.0000e-10
Integration weight cutoff        WCut        ...    1.0000e-14
Grids for H and He will be reduced by one unit

# of grid points (after initial pruning)     ...  86808 (   0.0 sec)
# of grid points (after weights+screening)   ...  75464 (   0.2 sec)
nearest neighbour list constructed           ...    0.0 sec
Grid point re-assignment to atoms done       ...    0.0 sec
Grid point division into batches done        ...    0.1 sec
Reduced shell lists constructed in    0.3 sec

Total number of grid points                  ...    75464
Total number of batches                      ...     1198
Average number of points per batch           ...       62
Average number of grid points per atom       ...     2040
Average number of shells per batch           ...   127.21 (59.72%)
Average number of basis functions per batch  ...   241.65 (63.09%)
Average number of large shells per batch     ...    91.16 (71.66%)
Average number of large basis fcns per batch ...   177.38 (73.40%)
Maximum spatial batch extension              ...  13.97, 12.30, 16.00 au
Average spatial batch extension              ...   0.33,  0.33,  0.34 au

Time for grid setup =    0.611 sec

--------------
SCF ITERATIONS
--------------
ITER       Energy         Delta-E        Max-DP      RMS-DP      [F,P]     Damp
               ***  Starting incremental Fock matrix formation  ***
                      *** Initiating the SOSCF procedure ***
                      *** Re-Reading the Fockian *** 
                      *** Removing any level shift *** 
ITER      Energy       Delta-E        Grad      Rot      Max-DP    RMS-DP
  0   -840.51298813 -840.5129881333  0.000004  0.000004  0.000504  0.000005
               *** Restarting incremental Fock matrix formation ***
                 **** Energy Check signals convergence ****
              ***Rediagonalizing the Fockian in SOSCF/NRSCF***

               *****************************************************
               *                     SUCCESS                       *
               *           SCF CONVERGED AFTER   1 CYCLES          *
               *****************************************************

Setting up the final grid:

General Integration Accuracy     IntAcc      ...  4.670
Radial Grid Type                 RadialGrid  ... Gauss-Chebyshev
Angular Grid (max. acc.)         AngularGrid ... Lebedev-302
Angular grid pruning method      GridPruning ... 3 (G Style)
Weight generation scheme         WeightScheme... Becke
Basis function cutoff            BFCut       ...    1.0000e-10
Integration weight cutoff        WCut        ...    1.0000e-14
Grids for H and He will be reduced by one unit

# of grid points (after initial pruning)     ... 173722 (   0.0 sec)
# of grid points (after weights+screening)   ... 148980 (   0.5 sec)
nearest neighbour list constructed           ...    0.0 sec
Grid point re-assignment to atoms done       ...    0.0 sec
Grid point division into batches done        ...    0.6 sec
Reduced shell lists constructed in    1.0 sec

Total number of grid points                  ...   148980
Total number of batches                      ...     2349
Average number of points per batch           ...       63
Average number of grid points per atom       ...     4026
Average number of shells per batch           ...   122.74 (57.63%)
Average number of basis functions per batch  ...   232.93 (60.82%)
Average number of large shells per batch     ...    87.27 (71.10%)
Average number of large basis fcns per batch ...   169.65 (72.83%)
Maximum spatial batch extension              ...  14.20, 13.01, 15.74 au
Average spatial batch extension              ...   0.27,  0.26,  0.27 au

Final grid set up in    1.6 sec
Final integration                            ... done (   1.1 sec)
Change in XC energy                          ...    -0.001550047
Integrated number of electrons               ...   130.000381281
Previous integrated no of electrons          ...   130.000853818

----------------
TOTAL SCF ENERGY
----------------

Total Energy       :         -840.51453818 Eh          -22871.56335 eV

Components:
Nuclear Repulsion  :         1337.38281955 Eh           36392.03666 eV
Electronic Energy  :        -2177.89735773 Eh          -59263.60001 eV
One Electron Energy:        -3805.39637468 Eh         -103550.09974 eV
Two Electron Energy:         1627.49901694 Eh           44286.49973 eV

Virial components:
Potential Energy   :        -1678.24968686 Eh          -45667.49567 eV
Kinetic Energy     :          837.73514868 Eh           22795.93232 eV
Virial Ratio       :            2.00331774


DFT components:
N(Alpha)           :       65.000190640254 electrons
N(Beta)            :       65.000190640254 electrons
N(Total)           :      130.000381280507 electrons
E(XC)              :     -113.130512040518 Eh       
DFET-embed. en.    :        0.000000000000 Eh       

---------------
SCF CONVERGENCE
---------------

  Last Energy change         ...   -1.8986e-10  Tolerance :   1.0000e-06
  Last MAX-Density change    ...    1.2138e-03  Tolerance :   1.0000e-05
  Last RMS-Density change    ...    1.1221e-05  Tolerance :   1.0000e-06
  Last Orbital Gradient      ...    2.7391e-06  Tolerance :   5.0000e-05
  Last Orbital Rotation      ...    1.4133e-05  Tolerance :   5.0000e-05

             **** THE GBW FILE WAS UPDATED (orca.gbw) ****
             **** DENSITY FILE WAS UPDATED (orca.scfp) ****
             **** ENERGY FILE WAS UPDATED (orca.en.tmp) ****
             **** THE GBW FILE WAS UPDATED (orca.gbw) ****
             **** DENSITY FILE WAS UPDATED (orca.scfp) ****
----------------
ORBITAL ENERGIES
----------------

  NO   OCC          E(Eh)            E(eV) 
   0   2.0000     -37.967454     -1033.1469 
   1   2.0000     -18.657101      -507.6855 
   2   2.0000     -14.048555      -382.2806 
   3   2.0000     -13.961534      -379.9127 
   4   2.0000      -9.974570      -271.4218 
   5   2.0000      -9.956757      -270.9371 
   6   2.0000      -9.953176      -270.8397 
   7   2.0000      -9.922178      -269.9962 
   8   2.0000      -9.918517      -269.8966 
   9   2.0000      -9.913231      -269.7527 
  10   2.0000      -9.905649      -269.5464 
  11   2.0000      -9.879897      -268.8457 
  12   2.0000      -9.871200      -268.6090 
  13   2.0000      -9.862672      -268.3770 
  14   2.0000      -9.859702      -268.2961 
  15   2.0000      -9.855358      -268.1779 
  16   2.0000      -6.462454      -175.8523 
  17   2.0000      -2.145893       -58.3927 
  18   2.0000      -1.119579       -30.4653 
  19   2.0000      -1.118624       -30.4393 
  20   2.0000      -1.117794       -30.4167 
  21   2.0000      -0.915866       -24.9220 
  22   2.0000      -0.876795       -23.8588 
  23   2.0000      -0.831244       -22.6193 
  24   2.0000      -0.755815       -20.5668 
  25   2.0000      -0.741018       -20.1641 
  26   2.0000      -0.712072       -19.3765 
  27   2.0000      -0.673952       -18.3392 
  28   2.0000      -0.645790       -17.5728 
  29   2.0000      -0.636686       -17.3251 
  30   2.0000      -0.606174       -16.4948 
  31   2.0000      -0.554971       -15.1015 
  32   2.0000      -0.546440       -14.8694 
  33   2.0000      -0.524540       -14.2735 
  34   2.0000      -0.504909       -13.7393 
  35   2.0000      -0.496189       -13.5020 
  36   2.0000      -0.473688       -12.8897 
  37   2.0000      -0.458614       -12.4795 
  38   2.0000      -0.454317       -12.3626 
  39   2.0000      -0.440537       -11.9876 
  40   2.0000      -0.420869       -11.4524 
  41   2.0000      -0.412681       -11.2296 
  42   2.0000      -0.408130       -11.1058 
  43   2.0000      -0.395982       -10.7752 
  44   2.0000      -0.386746       -10.5239 
  45   2.0000      -0.380837       -10.3631 
  46   2.0000      -0.368058       -10.0154 
  47   2.0000      -0.362130        -9.8541 
  48   2.0000      -0.355315        -9.6686 
  49   2.0000      -0.343911        -9.3583 
  50   2.0000      -0.332581        -9.0500 
  51   2.0000      -0.327059        -8.8997 
  52   2.0000      -0.316343        -8.6081 
  53   2.0000      -0.312381        -8.5003 
  54   2.0000      -0.308416        -8.3924 
  55   2.0000      -0.295550        -8.0423 
  56   2.0000      -0.285620        -7.7721 
  57   2.0000      -0.279730        -7.6118 
  58   2.0000      -0.272834        -7.4242 
  59   2.0000      -0.254767        -6.9326 
  60   2.0000      -0.230982        -6.2853 
  61   2.0000      -0.205733        -5.5983 
  62   2.0000      -0.178542        -4.8584 
  63   2.0000      -0.158506        -4.3132 
  64   2.0000      -0.143955        -3.9172 
  65   0.0000      -0.084706        -2.3050 
  66   0.0000      -0.082707        -2.2506 
  67   0.0000      -0.017195        -0.4679 
  68   0.0000      -0.011920        -0.3244 
  69   0.0000       0.000810         0.0220 
  70   0.0000       0.006288         0.1711 
  71   0.0000       0.012485         0.3397 
  72   0.0000       0.025023         0.6809 
  73   0.0000       0.040192         1.0937 
  74   0.0000       0.043190         1.1753 
  75   0.0000       0.054438         1.4813 
  76   0.0000       0.059587         1.6215 
  77   0.0000       0.066220         1.8020 
  78   0.0000       0.073056         1.9880 
  79   0.0000       0.080219         2.1829 
  80   0.0000       0.084046         2.2870 
  81   0.0000       0.087702         2.3865 
  82   0.0000       0.093960         2.5568 
  83   0.0000       0.099192         2.6992 
  84   0.0000       0.104052         2.8314 
  85   0.0000       0.107441         2.9236 
  86   0.0000       0.116506         3.1703 
  87   0.0000       0.120052         3.2668 
  88   0.0000       0.121991         3.3196 
  89   0.0000       0.127531         3.4703 
  90   0.0000       0.132208         3.5976 
  91   0.0000       0.139088         3.7848 
  92   0.0000       0.139967         3.8087 
  93   0.0000       0.146936         3.9983 
  94   0.0000       0.151921         4.1340 
  95   0.0000       0.158473         4.3123 
  96   0.0000       0.165078         4.4920 
  97   0.0000       0.170710         4.6452 
  98   0.0000       0.181555         4.9404 
  99   0.0000       0.183762         5.0004 
 100   0.0000       0.187277         5.0961 
 101   0.0000       0.192142         5.2284 
 102   0.0000       0.201931         5.4948 
 103   0.0000       0.204673         5.5694 
 104   0.0000       0.206258         5.6126 
 105   0.0000       0.214695         5.8421 
 106   0.0000       0.217741         5.9250 
 107   0.0000       0.222287         6.0487 
 108   0.0000       0.230766         6.2794 
 109   0.0000       0.240842         6.5537 
 110   0.0000       0.242057         6.5867 
 111   0.0000       0.249074         6.7776 
 112   0.0000       0.252110         6.8603 
 113   0.0000       0.260040         7.0760 
 114   0.0000       0.264581         7.1996 
 115   0.0000       0.270953         7.3730 
 116   0.0000       0.282401         7.6845 
 117   0.0000       0.285400         7.7661 
 118   0.0000       0.293065         7.9747 
 119   0.0000       0.299234         8.1426 
 120   0.0000       0.304503         8.2859 
 121   0.0000       0.308114         8.3842 
 122   0.0000       0.311769         8.4837 
 123   0.0000       0.313471         8.5300 
 124   0.0000       0.325833         8.8664 
 125   0.0000       0.329699         8.9716 
 126   0.0000       0.337464         9.1829 
 127   0.0000       0.341933         9.3045 
 128   0.0000       0.351537         9.5658 
 129   0.0000       0.357931         9.7398 
 130   0.0000       0.359010         9.7691 
 131   0.0000       0.364928         9.9302 
 132   0.0000       0.365905         9.9568 
 133   0.0000       0.367528        10.0010 
 134   0.0000       0.376165        10.2360 
 135   0.0000       0.379774        10.3342 
 136   0.0000       0.391511        10.6535 
 137   0.0000       0.402341        10.9483 
 138   0.0000       0.404548        11.0083 
 139   0.0000       0.409927        11.1547 
 140   0.0000       0.412811        11.2332 
 141   0.0000       0.414417        11.2769 
 142   0.0000       0.417449        11.3594 
 143   0.0000       0.422616        11.5000 
 144   0.0000       0.427012        11.6196 
 145   0.0000       0.429452        11.6860 
 146   0.0000       0.432667        11.7735 
 147   0.0000       0.438422        11.9301 
 148   0.0000       0.441871        12.0239 
 149   0.0000       0.444955        12.1078 
 150   0.0000       0.452559        12.3148 
 151   0.0000       0.456143        12.4123 
 152   0.0000       0.463266        12.6061 
 153   0.0000       0.471452        12.8289 
 154   0.0000       0.478715        13.0265 
 155   0.0000       0.481808        13.1107 
 156   0.0000       0.484956        13.1963 
 157   0.0000       0.488540        13.2939 
 158   0.0000       0.491894        13.3851 
 159   0.0000       0.499328        13.5874 
 160   0.0000       0.507537        13.8108 
 161   0.0000       0.511822        13.9274 
 162   0.0000       0.520778        14.1711 
 163   0.0000       0.525616        14.3027 
 164   0.0000       0.530533        14.4365 
 165   0.0000       0.540732        14.7141 
 166   0.0000       0.545258        14.8372 
 167   0.0000       0.552215        15.0265 
 168   0.0000       0.560968        15.2647 
 169   0.0000       0.577041        15.7021 
 170   0.0000       0.585865        15.9422 
 171   0.0000       0.593348        16.1458 
 172   0.0000       0.599357        16.3093 
 173   0.0000       0.614365        16.7177 
 174   0.0000       0.632998        17.2248 
 175   0.0000       0.639889        17.4123 
 176   0.0000       0.645734        17.5713 
 177   0.0000       0.655415        17.8348 
 178   0.0000       0.661584        18.0026 
 179   0.0000       0.674872        18.3642 
 180   0.0000       0.678280        18.4569 
 181   0.0000       0.684663        18.6306 
 182   0.0000       0.706292        19.2192 
 183   0.0000       0.718423        19.5493 
 184   0.0000       0.725055        19.7297 
 185   0.0000       0.737016        20.0552 
 186   0.0000       0.740171        20.1411 
 187   0.0000       0.753976        20.5167 
 188   0.0000       0.769535        20.9401 
 189   0.0000       0.784464        21.3464 
 190   0.0000       0.802824        21.8460 
 191   0.0000       0.822867        22.3913 
 192   0.0000       0.842803        22.9338 
 193   0.0000       0.863709        23.5027 
 194   0.0000       0.883363        24.0375 
 195   0.0000       0.888657        24.1816 
 196   0.0000       0.900123        24.4936 
 197   0.0000       0.920539        25.0491 
 198   0.0000       0.930897        25.3310 
 199   0.0000       0.936941        25.4955 
 200   0.0000       0.960569        26.1384 
 201   0.0000       0.983297        26.7569 
 202   0.0000       1.024975        27.8910 
 203   0.0000       1.089808        29.6552 
 204   0.0000       1.120328        30.4857 
 205   0.0000       1.201660        32.6988 
 206   0.0000       1.228679        33.4341 
 207   0.0000       1.230905        33.4946 
 208   0.0000       1.243605        33.8402 
 209   0.0000       1.278075        34.7782 
 210   0.0000       1.285638        34.9840 
 211   0.0000       1.303729        35.4763 
 212   0.0000       1.310484        35.6601 
 213   0.0000       1.317264        35.8446 
 214   0.0000       1.334011        36.3003 
 215   0.0000       1.337600        36.3979 
 216   0.0000       1.348127        36.6844 
 217   0.0000       1.369301        37.2606 
 218   0.0000       1.382690        37.6249 
 219   0.0000       1.385180        37.6927 
 220   0.0000       1.392506        37.8920 
 221   0.0000       1.396618        38.0039 
 222   0.0000       1.399865        38.0923 
 223   0.0000       1.412948        38.4483 
 224   0.0000       1.415031        38.5050 
 225   0.0000       1.431138        38.9432 
 226   0.0000       1.437872        39.1265 
 227   0.0000       1.449093        39.4318 
 228   0.0000       1.456611        39.6364 
 229   0.0000       1.465285        39.8724 
 230   0.0000       1.469733        39.9935 
 231   0.0000       1.481448        40.3123 
 232   0.0000       1.484443        40.3938 
 233   0.0000       1.499424        40.8014 
 234   0.0000       1.504775        40.9470 
 235   0.0000       1.509993        41.0890 
 236   0.0000       1.515412        41.2365 
 237   0.0000       1.525899        41.5218 
 238   0.0000       1.529736        41.6262 
 239   0.0000       1.535591        41.7855 
 240   0.0000       1.538510        41.8650 
 241   0.0000       1.546543        42.0836 
 242   0.0000       1.557964        42.3943 
 243   0.0000       1.565309        42.5942 
 244   0.0000       1.569488        42.7079 
 245   0.0000       1.584310        43.1113 
 246   0.0000       1.593398        43.3586 
 247   0.0000       1.595671        43.4204 
 248   0.0000       1.608491        43.7693 
 249   0.0000       1.610375        43.8205 
 250   0.0000       1.619906        44.0799 
 251   0.0000       1.627379        44.2832 
 252   0.0000       1.641620        44.6707 
 253   0.0000       1.653086        44.9828 
 254   0.0000       1.657641        45.1067 
 255   0.0000       1.667473        45.3742 
 256   0.0000       1.670986        45.4698 
 257   0.0000       1.683111        45.7998 
 258   0.0000       1.689235        45.9664 
 259   0.0000       1.708553        46.4921 
 260   0.0000       1.724814        46.9346 
 261   0.0000       1.727127        46.9975 
 262   0.0000       1.738660        47.3113 
 263   0.0000       1.739349        47.3301 
 264   0.0000       1.752497        47.6879 
 265   0.0000       1.762294        47.9545 
 266   0.0000       1.767200        48.0879 
 267   0.0000       1.774726        48.2927 
 268   0.0000       1.780225        48.4424 
 269   0.0000       1.787198        48.6321 
 270   0.0000       1.790003        48.7085 
 271   0.0000       1.805406        49.1276 
 272   0.0000       1.814068        49.3633 
 273   0.0000       1.816511        49.4298 
 274   0.0000       1.820674        49.5431 
 275   0.0000       1.833004        49.8786 
 276   0.0000       1.851225        50.3744 
 277   0.0000       1.873099        50.9696 
 278   0.0000       1.876274        51.0560 
 279   0.0000       1.890273        51.4369 
 280   0.0000       1.906740        51.8850 
 281   0.0000       1.948701        53.0269 
 282   0.0000       1.962426        53.4003 
 283   0.0000       1.982715        53.9524 
 284   0.0000       1.999551        54.4105 
 285   0.0000       2.011426        54.7337 
 286   0.0000       2.020583        54.9828 
 287   0.0000       2.037278        55.4372 
 288   0.0000       2.056091        55.9491 
 289   0.0000       2.084362        56.7184 
 290   0.0000       2.087808        56.8122 
 291   0.0000       2.110175        57.4208 
 292   0.0000       2.116851        57.6025 
 293   0.0000       2.132816        58.0369 
 294   0.0000       2.143046        58.3153 
 295   0.0000       2.161907        58.8285 
 296   0.0000       2.178701        59.2855 
 297   0.0000       2.208691        60.1015 
 298   0.0000       2.217308        60.3360 
 299   0.0000       2.223744        60.5112 
 300   0.0000       2.238234        60.9054 
 301   0.0000       2.248353        61.1808 
 302   0.0000       2.258378        61.4536 
 303   0.0000       2.264190        61.6117 
 304   0.0000       2.270906        61.7945 
 305   0.0000       2.297908        62.5293 
 306   0.0000       2.301555        62.6285 
 307   0.0000       2.307324        62.7855 
 308   0.0000       2.320812        63.1525 
 309   0.0000       2.333366        63.4941 
 310   0.0000       2.344605        63.7999 
 311   0.0000       2.353527        64.0427 
 312   0.0000       2.361964        64.2723 
 313   0.0000       2.416042        65.7438 
 314   0.0000       2.436966        66.3132 
 315   0.0000       2.452037        66.7233 
 316   0.0000       2.456415        66.8424 
 317   0.0000       2.484299        67.6012 
 318   0.0000       2.504951        68.1632 
 319   0.0000       2.519340        68.5547 
 320   0.0000       2.534203        68.9592 
 321   0.0000       2.546095        69.2828 
 322   0.0000       2.559766        69.6548 
 323   0.0000       2.586768        70.3895 
 324   0.0000       2.591506        70.5185 
 325   0.0000       2.606511        70.9268 
 326   0.0000       2.612382        71.0865 
 327   0.0000       2.624293        71.4106 
 328   0.0000       2.635502        71.7156 
 329   0.0000       2.645386        71.9846 
 330   0.0000       2.662580        72.4525 
 331   0.0000       2.696003        73.3620 
 332   0.0000       2.708438        73.7004 
 333   0.0000       2.709182        73.7206 
 334   0.0000       2.739426        74.5436 
 335   0.0000       2.753742        74.9331 
 336   0.0000       2.770143        75.3794 
 337   0.0000       2.792743        75.9944 
 338   0.0000       2.812970        76.5448 
 339   0.0000       2.829870        77.0047 
 340   0.0000       2.865540        77.9753 
 341   0.0000       2.875489        78.2460 
 342   0.0000       2.907047        79.1048 
 343   0.0000       2.918996        79.4299 
 344   0.0000       2.949331        80.2554 
 345   0.0000       2.964532        80.6690 
 346   0.0000       3.011424        81.9450 
 347   0.0000       3.044712        82.8508 
 348   0.0000       3.053770        83.0973 
 349   0.0000       3.068375        83.4947 
 350   0.0000       3.080468        83.8238 
 351   0.0000       3.111910        84.6794 
 352   0.0000       3.124413        85.0196 
 353   0.0000       3.131791        85.2204 
 354   0.0000       3.160543        86.0028 
 355   0.0000       3.169117        86.2361 
 356   0.0000       3.214927        87.4826 
 357   0.0000       3.250075        88.4391 
 358   0.0000       3.325680        90.4964 
 359   0.0000       3.417360        92.9911 
 360   0.0000       3.451069        93.9084 
 361   0.0000       3.480334        94.7047 
 362   0.0000       3.503871        95.3452 
 363   0.0000       3.517877        95.7263 
 364   0.0000       3.552166        96.6593 
 365   0.0000       3.868381       105.2640 
 366   0.0000       4.024360       109.5084 
 367   0.0000      13.553267       368.8031 
 368   0.0000      21.230712       577.7170 
 369   0.0000      21.611212       588.0710 
 370   0.0000      21.646623       589.0346 
 371   0.0000      21.734032       591.4131 
 372   0.0000      21.810632       593.4975 
 373   0.0000      21.846023       594.4605 
 374   0.0000      21.878072       595.3326 
 375   0.0000      21.892904       595.7362 
 376   0.0000      21.976863       598.0208 
 377   0.0000      22.016926       599.1110 
 378   0.0000      22.100754       601.3921 
 379   0.0000      22.210713       604.3842 
 380   0.0000      31.782361       864.8420 
 381   0.0000      31.896688       867.9530 
 382   0.0000      43.574821      1185.7312 

                    ********************************
                    * MULLIKEN POPULATION ANALYSIS *
                    ********************************

-----------------------
MULLIKEN ATOMIC CHARGES
-----------------------
   0 C :   -0.291472
   1 C :   -0.113021
   2 C :   -0.099666
   3 C :    0.156923
   4 C :    0.225430
   5 C :   -0.302970
   6 O :   -0.507876
   7 C :   -0.455836
   8 N :   -0.330446
   9 N :   -0.125878
  10 C :   -0.304601
  11 C :   -0.291034
  12 C :   -0.329684
  13 C :   -0.240767
  14 C :   -0.468187
  15 H :    0.148720
  16 H :    0.130924
  17 H :    0.138019
  18 H :    0.336296
  19 H :    0.243283
  20 H :    0.163111
  21 H :    0.183981
  22 H :    0.142115
  23 H :    0.174088
  24 H :    0.207260
  25 H :    0.221581
  26 H :    0.157784
  27 H :    0.236131
  28 H :    0.194615
  29 H :    0.116862
  30 Na:    0.856848
  31 B :   -0.619412
  32 H :   -0.017423
  33 H :   -0.016475
  34 H :    0.067452
  35 H :    0.193395
  36 H :    0.219931
Sum of atomic charges:   -0.0000000

--------------------------------
MULLIKEN REDUCED ORBITAL CHARGES
--------------------------------
  0 C s       :     3.161354  s :     3.161354
      pz      :     1.076599  p :     3.089506
      px      :     0.972322
      py      :     1.040585
      dz2     :     0.004380  d :     0.040613
      dxz     :     0.008982
      dyz     :     0.007433
      dx2y2   :     0.010566
      dxy     :     0.009252
  1 C s       :     3.064192  s :     3.064192
      pz      :     0.962501  p :     3.006206
      px      :     1.036129
      py      :     1.007577
      dz2     :     0.009208  d :     0.042622
      dxz     :     0.008258
      dyz     :     0.005949
      dx2y2   :     0.007529
      dxy     :     0.011678
  2 C s       :     3.011450  s :     3.011450
      pz      :     1.013224  p :     3.044002
      px      :     1.059023
      py      :     0.971755
      dz2     :     0.006729  d :     0.044214
      dxz     :     0.010181
      dyz     :     0.006482
      dx2y2   :     0.011245
      dxy     :     0.009576
  3 C s       :     3.087685  s :     3.087685
      pz      :     0.951677  p :     2.710507
      px      :     0.752682
      py      :     1.006148
      dz2     :     0.007978  d :     0.044885
      dxz     :     0.009203
      dyz     :     0.006873
      dx2y2   :     0.009153
      dxy     :     0.011679
  4 C s       :     3.077014  s :     3.077014
      pz      :     0.866107  p :     2.607835
      px      :     0.937064
      py      :     0.804663
      dz2     :     0.015904  d :     0.089722
      dxz     :     0.017100
      dyz     :     0.011810
      dx2y2   :     0.018120
      dxy     :     0.026787
  5 C s       :     3.238498  s :     3.238498
      pz      :     1.018774  p :     3.025853
      px      :     1.006368
      py      :     1.000711
      dz2     :     0.005596  d :     0.038620
      dxz     :     0.008874
      dyz     :     0.006102
      dx2y2   :     0.008400
      dxy     :     0.009646
  6 O s       :     3.847029  s :     3.847029
      pz      :     1.490257  p :     4.623897
      px      :     1.779004
      py      :     1.354635
      dz2     :     0.005449  d :     0.036950
      dxz     :     0.002422
      dyz     :     0.013458
      dx2y2   :     0.006547
      dxy     :     0.009074
  7 C s       :     3.411455  s :     3.411455
      pz      :     1.074623  p :     2.982520
      px      :     0.893720
      py      :     1.014177
      dz2     :     0.014238  d :     0.061861
      dxz     :     0.010829
      dyz     :     0.013092
      dx2y2   :     0.011115
      dxy     :     0.012586
  8 N s       :     3.392048  s :     3.392048
      pz      :     1.107245  p :     3.896755
      px      :     1.501367
      py      :     1.288144
      dz2     :     0.008055  d :     0.041642
      dxz     :     0.005353
      dyz     :     0.015466
      dx2y2   :     0.005817
      dxy     :     0.006950
  9 N s       :     3.293551  s :     3.293551
      pz      :     1.125632  p :     3.783652
      px      :     1.396573
      py      :     1.261448
      dz2     :     0.010929  d :     0.048675
      dxz     :     0.010848
      dyz     :     0.012156
      dx2y2   :     0.006488
      dxy     :     0.008255
 10 C s       :     3.226145  s :     3.226145
      pz      :     1.148348  p :     3.020178
      px      :     0.863010
      py      :     1.008819
      dz2     :     0.012580  d :     0.058278
      dxz     :     0.005460
      dyz     :     0.008578
      dx2y2   :     0.019816
      dxy     :     0.011844
 11 C s       :     3.118573  s :     3.118573
      pz      :     1.103558  p :     3.128763
      px      :     1.060475
      py      :     0.964730
      dz2     :     0.012050  d :     0.043697
      dxz     :     0.006564
      dyz     :     0.006187
      dx2y2   :     0.007969
      dxy     :     0.010927
 12 C s       :     3.267887  s :     3.267887
      pz      :     1.113463  p :     3.006479
      px      :     1.004437
      py      :     0.888579
      dz2     :     0.015160  d :     0.055318
      dxz     :     0.003656
      dyz     :     0.007914
      dx2y2   :     0.016910
      dxy     :     0.011677
 13 C s       :     3.198258  s :     3.198258
      pz      :     0.934467  p :     2.985075
      px      :     1.031741
      py      :     1.018867
      dz2     :     0.014010  d :     0.057434
      dxz     :     0.007126
      dyz     :     0.015672
      dx2y2   :     0.005594
      dxy     :     0.015033
 14 C s       :     3.245355  s :     3.245355
      pz      :     0.869115  p :     3.168743
      px      :     1.077472
      py      :     1.222156
      dz2     :     0.011020  d :     0.054089
      dxz     :     0.014899
      dyz     :     0.009444
      dx2y2   :     0.008489
      dxy     :     0.010236
 15 H s       :     0.851280  s :     0.851280
 16 H s       :     0.869076  s :     0.869076
 17 H s       :     0.861981  s :     0.861981
 18 H s       :     0.663704  s :     0.663704
 19 H s       :     0.756717  s :     0.756717
 20 H s       :     0.836889  s :     0.836889
 21 H s       :     0.816019  s :     0.816019
 22 H s       :     0.857885  s :     0.857885
 23 H s       :     0.825912  s :     0.825912
 24 H s       :     0.792740  s :     0.792740
 25 H s       :     0.778419  s :     0.778419
 26 H s       :     0.842216  s :     0.842216
 27 H s       :     0.763869  s :     0.763869
 28 H s       :     0.805385  s :     0.805385
 29 H s       :     0.883138  s :     0.883138
 30 Nas       :     4.087881  s :     4.087881
      pz      :     2.026077  p :     6.055271
      px      :     2.008046
      py      :     2.021148
 31 B s       :     3.236503  s :     3.236503
      pz      :     0.993385  p :     2.354836
      px      :     0.598872
      py      :     0.762580
      dz2     :     0.008827  d :     0.028073
      dxz     :     0.000292
      dyz     :     0.007720
      dx2y2   :     0.001332
      dxy     :     0.009903
 32 H s       :     1.017423  s :     1.017423
 33 H s       :     1.016475  s :     1.016475
 34 H s       :     0.932548  s :     0.932548
 35 H s       :     0.806605  s :     0.806605
 36 H s       :     0.780069  s :     0.780069


                     *******************************
                     * LOEWDIN POPULATION ANALYSIS *
                     *******************************

----------------------
LOEWDIN ATOMIC CHARGES
----------------------
   0 C :   -0.216741
   1 C :   -0.162853
   2 C :   -0.162019
   3 C :   -0.135429
   4 C :    0.189807
   5 C :   -0.142075
   6 O :   -0.711901
   7 C :    0.008819
   8 N :   -0.367797
   9 N :   -0.238860
  10 C :   -0.196855
  11 C :   -0.327982
  12 C :   -0.181018
  13 C :   -0.199614
  14 C :   -0.232604
  15 H :    0.157338
  16 H :    0.156222
  17 H :    0.173212
  18 H :    0.312909
  19 H :    0.204290
  20 H :    0.144086
  21 H :    0.161623
  22 H :    0.152531
  23 H :    0.145491
  24 H :    0.178592
  25 H :    0.176545
  26 H :    0.150303
  27 H :    0.182026
  28 H :    0.148390
  29 H :    0.113021
  30 Na:    0.712249
  31 B :   -0.589732
  32 H :    0.009805
  33 H :    0.008031
  34 H :    0.049916
  35 H :    0.159048
  36 H :    0.171225

-------------------------------
LOEWDIN REDUCED ORBITAL CHARGES
-------------------------------
  0 C s       :     2.896970  s :     2.896970
      pz      :     1.072207  p :     3.239383
      px      :     1.093881
      py      :     1.073295
      dz2     :     0.008641  d :     0.080388
      dxz     :     0.018873
      dyz     :     0.011323
      dx2y2   :     0.021834
      dxy     :     0.019718
  1 C s       :     2.889641  s :     2.889641
      pz      :     1.046489  p :     3.189270
      px      :     1.094397
      py      :     1.048384
      dz2     :     0.017039  d :     0.083942
      dxz     :     0.017281
      dyz     :     0.012692
      dx2y2   :     0.015486
      dxy     :     0.021445
  2 C s       :     2.891598  s :     2.891598
      pz      :     1.038743  p :     3.183628
      px      :     1.091936
      py      :     1.052949
      dz2     :     0.013219  d :     0.086794
      dxz     :     0.018825
      dyz     :     0.012878
      dx2y2   :     0.022310
      dxy     :     0.019562
  3 C s       :     2.841526  s :     2.841526
      pz      :     1.089574  p :     3.200199
      px      :     1.029874
      py      :     1.080751
      dz2     :     0.015511  d :     0.093703
      dxz     :     0.019522
      dyz     :     0.014723
      dx2y2   :     0.019701
      dxy     :     0.024246
  4 C s       :     2.783592  s :     2.783592
      pz      :     0.877292  p :     2.830532
      px      :     1.017198
      py      :     0.936042
      dz2     :     0.030742  d :     0.196069
      dxz     :     0.036459
      dyz     :     0.031250
      dx2y2   :     0.039059
      dxy     :     0.058560
  5 C s       :     2.902976  s :     2.902976
      pz      :     1.052506  p :     3.163912
      px      :     1.061438
      py      :     1.049968
      dz2     :     0.010489  d :     0.075187
      dxz     :     0.015895
      dyz     :     0.013012
      dx2y2   :     0.016874
      dxy     :     0.018916
  6 O s       :     3.570960  s :     3.570960
      pz      :     1.551688  p :     4.810072
      px      :     1.771927
      py      :     1.486457
      dz2     :     0.054085  d :     0.330869
      dxz     :     0.043893
      dyz     :     0.088987
      dx2y2   :     0.072028
      dxy     :     0.071876
  7 C s       :     2.905856  s :     2.905856
      pz      :     1.080983  p :     2.964300
      px      :     0.943658
      py      :     0.939659
      dz2     :     0.025853  d :     0.121026
      dxz     :     0.021454
      dyz     :     0.027220
      dx2y2   :     0.021349
      dxy     :     0.025149
  8 N s       :     3.167395  s :     3.167395
      pz      :     1.230744  p :     4.123287
      px      :     1.525240
      py      :     1.367303
      dz2     :     0.016393  d :     0.077115
      dxz     :     0.010897
      dyz     :     0.027336
      dx2y2   :     0.009549
      dxy     :     0.012940
  9 N s       :     3.100489  s :     3.100489
      pz      :     1.281792  p :     4.040469
      px      :     1.427839
      py      :     1.330838
      dz2     :     0.022853  d :     0.097902
      dxz     :     0.021458
      dyz     :     0.025036
      dx2y2   :     0.011796
      dxy     :     0.016759
 10 C s       :     2.912239  s :     2.912239
      pz      :     1.126245  p :     3.174403
      px      :     1.000967
      py      :     1.047191
      dz2     :     0.022221  d :     0.110212
      dxz     :     0.010028
      dyz     :     0.014291
      dx2y2   :     0.039439
      dxy     :     0.024233
 11 C s       :     2.940849  s :     2.940849
      pz      :     1.119868  p :     3.308597
      px      :     1.116189
      py      :     1.072540
      dz2     :     0.020758  d :     0.078536
      dxz     :     0.010644
      dyz     :     0.011118
      dx2y2   :     0.016412
      dxy     :     0.019604
 12 C s       :     2.911983  s :     2.911983
      pz      :     1.117725  p :     3.165129
      px      :     1.039224
      py      :     1.008180
      dz2     :     0.025824  d :     0.103906
      dxz     :     0.006762
      dyz     :     0.016005
      dx2y2   :     0.032536
      dxy     :     0.022779
 13 C s       :     2.918317  s :     2.918317
      pz      :     1.022283  p :     3.172475
      px      :     1.085397
      py      :     1.064795
      dz2     :     0.028201  d :     0.108822
      dxz     :     0.013126
      dyz     :     0.029624
      dx2y2   :     0.009023
      dxy     :     0.028847
 14 C s       :     2.940723  s :     2.940723
      pz      :     0.958911  p :     3.190761
      px      :     1.086661
      py      :     1.145189
      dz2     :     0.023143  d :     0.101120
      dxz     :     0.028263
      dyz     :     0.016390
      dx2y2   :     0.013494
      dxy     :     0.019830
 15 H s       :     0.842662  s :     0.842662
 16 H s       :     0.843778  s :     0.843778
 17 H s       :     0.826788  s :     0.826788
 18 H s       :     0.687091  s :     0.687091
 19 H s       :     0.795710  s :     0.795710
 20 H s       :     0.855914  s :     0.855914
 21 H s       :     0.838377  s :     0.838377
 22 H s       :     0.847469  s :     0.847469
 23 H s       :     0.854509  s :     0.854509
 24 H s       :     0.821408  s :     0.821408
 25 H s       :     0.823455  s :     0.823455
 26 H s       :     0.849697  s :     0.849697
 27 H s       :     0.817974  s :     0.817974
 28 H s       :     0.851610  s :     0.851610
 29 H s       :     0.886979  s :     0.886979
 30 Nas       :     4.086161  s :     4.086161
      pz      :     2.068632  p :     6.201591
      px      :     2.055819
      py      :     2.077140
 31 B s       :     2.870376  s :     2.870376
      pz      :     1.020639  p :     2.670376
      px      :     0.751065
      py      :     0.898672
      dz2     :     0.015007  d :     0.048980
      dxz     :     0.000474
      dyz     :     0.013005
      dx2y2   :     0.002611
      dxy     :     0.017883
 32 H s       :     0.990195  s :     0.990195
 33 H s       :     0.991969  s :     0.991969
 34 H s       :     0.950084  s :     0.950084
 35 H s       :     0.840952  s :     0.840952
 36 H s       :     0.828775  s :     0.828775


                      *****************************
                      * MAYER POPULATION ANALYSIS *
                      *****************************

  NA   - Mulliken gross atomic population
  ZA   - Total nuclear charge
  QA   - Mulliken gross atomic charge
  VA   - Mayer's total valence
  BVA  - Mayer's bonded valence
  FA   - Mayer's free valence

  ATOM       NA         ZA         QA         VA         BVA        FA
  0 C      6.2915     6.0000    -0.2915     4.2176     4.2176    -0.0000
  1 C      6.1130     6.0000    -0.1130     3.9187     3.9187    -0.0000
  2 C      6.0997     6.0000    -0.0997     3.8713     3.8713     0.0000
  3 C      5.8431     6.0000     0.1569     2.7729     2.7729    -0.0000
  4 C      5.7746     6.0000     0.2254     4.2388     4.2388    -0.0000
  5 C      6.3030     6.0000    -0.3030     3.9441     3.9441    -0.0000
  6 O      8.5079     8.0000    -0.5079     2.0158     2.0158    -0.0000
  7 C      6.4558     6.0000    -0.4558     3.9634     3.9634    -0.0000
  8 N      7.3304     7.0000    -0.3304     2.8864     2.8864     0.0000
  9 N      7.1259     7.0000    -0.1259     2.7133     2.7133     0.0000
 10 C      6.3046     6.0000    -0.3046     3.9314     3.9314     0.0000
 11 C      6.2910     6.0000    -0.2910     3.5628     3.5628    -0.0000
 12 C      6.3297     6.0000    -0.3297     3.6828     3.6828    -0.0000
 13 C      6.2408     6.0000    -0.2408     3.7673     3.7673     0.0000
 14 C      6.4682     6.0000    -0.4682     3.5931     3.5931     0.0000
 15 H      0.8513     1.0000     0.1487     0.9405     0.9405     0.0000
 16 H      0.8691     1.0000     0.1309     0.9430     0.9430     0.0000
 17 H      0.8620     1.0000     0.1380     0.9664     0.9664    -0.0000
 18 H      0.6637     1.0000     0.3363     0.9271     0.9271     0.0000
 19 H      0.7567     1.0000     0.2433     0.9762     0.9762    -0.0000
 20 H      0.8369     1.0000     0.1631     0.9353     0.9353    -0.0000
 21 H      0.8160     1.0000     0.1840     0.9416     0.9416    -0.0000
 22 H      0.8579     1.0000     0.1421     0.9562     0.9562    -0.0000
 23 H      0.8259     1.0000     0.1741     0.9273     0.9273     0.0000
 24 H      0.7927     1.0000     0.2073     0.9445     0.9445     0.0000
 25 H      0.7784     1.0000     0.2216     0.9376     0.9376     0.0000
 26 H      0.8422     1.0000     0.1578     0.9433     0.9433    -0.0000
 27 H      0.7639     1.0000     0.2361     0.9329     0.9329     0.0000
 28 H      0.8054     1.0000     0.1946     0.9169     0.9169     0.0000
 29 H      0.8831     1.0000     0.1169     0.8347     0.8347    -0.0000
 30 Na    10.1432    11.0000     0.8568     0.3128     0.3128    -0.0000
 31 B      5.6194     5.0000    -0.6194     3.6619     3.6619    -0.0000
 32 H      1.0174     1.0000    -0.0174     0.9217     0.9217    -0.0000
 33 H      1.0165     1.0000    -0.0165     0.9125     0.9125    -0.0000
 34 H      0.9325     1.0000     0.0675     0.9931     0.9931     0.0000
 35 H      0.8066     1.0000     0.1934     0.9199     0.9199    -0.0000
 36 H      0.7801     1.0000     0.2199     0.9365     0.9365    -0.0000

  Mayer bond orders larger than 0.100000
B(  0-C ,  1-C ) :   1.3975 B(  0-C ,  2-C ) :   1.6563 B(  0-C , 15-H ) :   0.9007 
B(  1-C ,  5-C ) :   1.6056 B(  1-C , 35-H ) :   0.8978 B(  2-C ,  3-C ) :   1.1152 
B(  2-C , 16-H ) :   0.8891 B(  3-C ,  4-C ) :   1.0670 B(  3-C ,  6-O ) :  -0.1173 
B(  3-C ,  7-C ) :   0.8354 B(  3-C , 29-H ) :  -0.1212 B(  4-C ,  5-C ) :   1.3135 
B(  4-C ,  6-O ) :   1.7324 B(  5-C , 17-H ) :   0.9215 B(  6-O , 18-H ) :   0.1181 
B(  7-C ,  9-N ) :   1.0997 B(  7-C , 19-H ) :   0.9021 B(  7-C , 29-H ) :   0.4863 
B(  7-C , 31-B ) :   0.1776 B(  8-N , 10-C ) :   1.0498 B(  8-N , 13-C ) :   1.1309 
B(  8-N , 18-H ) :   0.7809 B(  9-N , 12-C ) :   0.8441 B(  9-N , 14-C ) :   0.8893 
B( 10-C , 11-C ) :   0.9894 B( 10-C , 20-H ) :   0.9509 B( 10-C , 21-H ) :   0.9414 
B( 11-C , 12-C ) :   0.9122 B( 11-C , 22-H ) :   0.9269 B( 11-C , 36-H ) :   0.9257 
B( 12-C , 23-H ) :   0.9515 B( 12-C , 24-H ) :   0.9409 B( 13-C , 14-C ) :   0.7998 
B( 13-C , 25-H ) :   0.9467 B( 13-C , 26-H ) :   0.9522 B( 14-C , 27-H ) :   0.9149 
B( 14-C , 28-H ) :   0.9348 B( 29-H , 31-B ) :   0.4905 B( 30-Na, 31-B ) :   0.1218 
B( 31-B , 32-H ) :   0.9018 B( 31-B , 33-H ) :   0.8819 B( 31-B , 34-H ) :   0.9884 


-------
TIMINGS
-------

Total SCF time: 0 days 0 hours 0 min 5 sec 

Total time                  ....       5.797 sec
Sum of individual times     ....       5.500 sec  ( 94.9%)

Fock matrix formation       ....       3.126 sec  ( 53.9%)
  Split-RI-J                ....       1.119 sec  ( 35.8% of F)
  XC integration            ....       1.991 sec  ( 63.7% of F)
    Basis function eval.    ....       0.400 sec  ( 20.1% of XC)
    Density eval.           ....       0.569 sec  ( 28.6% of XC)
    XC-Functional eval.     ....       0.149 sec  (  7.5% of XC)
    XC-Potential eval.      ....       0.811 sec  ( 40.7% of XC)
Diagonalization             ....       0.044 sec  (  0.8%)
Density matrix formation    ....       0.008 sec  (  0.1%)
Population analysis         ....       0.036 sec  (  0.6%)
Initial guess               ....       0.038 sec  (  0.7%)
Orbital Transformation      ....       0.000 sec  (  0.0%)
Orbital Orthonormalization  ....       0.029 sec  (  0.5%)
DIIS solution               ....       0.014 sec  (  0.2%)
SOSCF solution              ....       0.034 sec  (  0.6%)
Grid generation             ....       2.200 sec  ( 37.9%)


-------------------------------------------------------------------------------
                          DFT DISPERSION CORRECTION                            
                                                                               
                              DFTD3 V3.1  Rev 1                                
                          USING Becke-Johnson damping                          
-------------------------------------------------------------------------------
The B97-3c composite method is recognized
Using three-body term ABC
Active option DFTDOPT                   ...         4   

molecular C6(AA) [au] = 14241.665594 


            DFT-D V3
 parameters
 s6 scaling factor         :     1.0000 
 a1 scaling factor         :     0.3700 
 s8 scaling factor         :     1.5000 
 a2 scaling factor         :     4.1000 
 Damping factor alpha9(ATM):    16.0000 
 ad hoc parameters k1-k3   :    16.0000     1.3333    -4.0000 

 Edisp/kcal,au: -68.202251735994  -0.108687194823 
 E6   /kcal   : -34.437126213 
 E8   /kcal   : -34.056330243 
 E6(ABC)      :   0.291204720 
 % E8         :  49.934319434 
 % E6(ABC)    :  -0.426972295 

-------------------------   ----------------
Dispersion correction           -0.108687195
-------------------------   ----------------

------------------   -----------------
SRB correction            -0.100829008
------------------   -----------------

-------------------------   --------------------
FINAL SINGLE POINT ENERGY      -840.724054383061
-------------------------   --------------------


                            ***************************************
                            *     ORCA property calculations      *
                            ***************************************

                                    ---------------------
                                    Active property flags
                                    ---------------------
   (+) Dipole Moment


------------------------------------------------------------------------------
                       ORCA ELECTRIC PROPERTIES CALCULATION
------------------------------------------------------------------------------

Dipole Moment Calculation                       ... on
Quadrupole Moment Calculation                   ... off
Polarizability Calculation                      ... off
GBWName                                         ... orca.gbw
Electron density file                           ... orca.scfp
The origin for moment calculation is the CENTER OF MASS  = (-2.477751, -3.900624  0.725343)

-------------
DIPOLE MOMENT
-------------
                                X             Y             Z
Electronic contribution:     -0.67404      -6.05125       2.68040
Nuclear contribution   :      3.76799       7.14028       0.58490
                        -----------------------------------------
Total Dipole Moment    :      3.09395       1.08903       3.26530
                        -----------------------------------------
Magnitude (a.u.)       :      4.62825
Magnitude (Debye)      :     11.76408



--------------------
Rotational spectrum 
--------------------
 
Rotational constants in cm-1:     0.019423     0.013445     0.009821 
Rotational constants in MHz :   582.287111   403.079402   294.432341 

 Dipole components along the rotational axes: 
x,y,z [a.u.] :     3.313684     1.864816     2.638686 
x,y,z [Debye]:     8.422716     4.739984     6.707007 

 


           ************************************************************
           *        Program running with 6 parallel MPI-processes     *
           *              working on a common directory               *
           ************************************************************

-------------------------------------------------------------------------------
                               ORCA SCF HESSIAN
-------------------------------------------------------------------------------

Hessian of the Kohn-Sham DFT energy:
Kohn-Sham wavefunction type                      ... RKS
Hartree-Fock exchange scaling                    ...    0.000
Number of operators                              ...    1
Number of atoms                                  ...   37
Basis set dimensions                             ...  383
Integral neglect threshold                       ... 1.0e-10
Integral primitive cutoff                        ... 1.0e-11

Setting up DFT Hessian calculations              ... 
Electron density on the grid                     ... found on disk
Electron density on the final grid               ... found on disk
Building xc-kernel on the grid                   ... done   (      0.1 sec)
Building xc-kernel on the final grid             ... done   (      0.2 sec)
                                                     done   (      0.5 sec)

Nuclear repulsion Hessian                        ... done   (      0.0 sec)

----------------------------------------------
Forming right-hand sides of CP-SCF equations     ...
----------------------------------------------
One electron integral derivatives                ... done   (      0.5 sec)
Transforming the overlap derivative matrices     ... done   (      0.2 sec)
Making the Q(x) pseudodensities                  ... done   (      0.3 sec)
Adding the E*S(x)*S(y) terms to the Hessian      ... done   (      0.2 sec)
Calculating energy weighted overlap derivatives  ... done   (      0.0 sec)
Two electron integral derivatives (RI)           ... done   (      7.5 sec)
Exchange-correlation integral derivatives        ... done   (    136.7 sec)
tr(F(y)Q(x)) contribution to the Hessian         ... done   (      0.2 sec)
Response fock operator R(S(x)) (RI)              ... done   (     31.5 sec)
XC Response fock operator R(S(x))                ... done   (     64.7 sec)
tr(F(y)S(x)) contribution to the Hessian         ... done   (      0.1 sec)
Transforming and finalizing RHSs                 ... done   (      0.9 sec)

----------------------------------------------
Solving the CP-SCF equations (RI)                ...
----------------------------------------------
     CP-SCF ITERATION   0: 
     CP-SCF ITERATION   1:      0.032815586826
     CP-SCF ITERATION   2:      0.001805903897
     CP-SCF ITERATION   3:      0.000221711391
     CP-SCF ITERATION   4:      0.000021783632
     CP-SCF ITERATION   5:      0.000003328213
     CP-SCF ITERATION   6:      0.000000998318

                                                 ... done   (    691.3 sec)
Forming perturbed density Hessian contributions  ... done   (      0.4 sec)
Making the perturbed densities                   ... done   (      0.2 sec)
2nd integral derivative contribs (RI)            ... done   (     40.0 sec)
Exchange-correlation Hessian                     ... done   (     81.2 sec)
Dispersion correction in the Hessian             ... done   (      2.1 sec)
SRB correction in the Hessian                    ... done   (      0.0 sec)
Dipol derivatives                                ... done   (      4.3 sec)

Total SCF Hessian time: 0 days 0 hours 17 min 43 sec 

Writing the Hessian file to the disk             ... done


Maximum memory used throughout the entire calculation: 605.6 MB

-----------------------
VIBRATIONAL FREQUENCIES
-----------------------

Scaling factor for frequencies =  1.000000000  (already applied!)

   0:         0.00 cm**-1
[...]
     49      -0.002945  -0.000010   0.000021
     50       0.003601  -0.000031   0.000165
     51       0.000725   0.000044  -0.002864
     52      -0.000120  -0.000029   0.002352
     53      -0.001167  -0.000011  -0.003238
     54      -0.252843  -0.000304  -0.000174
     55      -0.572043  -0.001348  -0.000391
     56      -0.774133  -0.001535  -0.000443
     57      -0.001954  -0.000066  -0.000095
     58       0.002998   0.000174   0.000070
     59      -0.003686  -0.000046  -0.000116
     60      -0.001264   0.001533  -0.000014
     61      -0.033797  -0.001541   0.000062
     62      -0.016171  -0.000501   0.000026
     63       0.000688   0.001204  -0.000020
     64       0.000866  -0.002293  -0.000012
     65      -0.006118   0.006148  -0.000024
     66      -0.000044   0.008176  -0.000007
     67       0.000265   0.005509   0.000004
     68      -0.000974   0.026922   0.000010
     69       0.000178  -0.003967   0.000049
     70       0.001213   0.002235   0.000005
     71      -0.000278   0.000144  -0.000014
     72      -0.000067  -0.000313  -0.000032
     73      -0.000218   0.001203   0.000008
     74      -0.000271   0.004374  -0.000022
     75      -0.001606   0.000390  -0.000020
     76      -0.003546   0.000181  -0.000044
     77       0.001948  -0.000052  -0.000020
     78      -0.005481  -0.000029   0.000006
     79      -0.023072   0.000283   0.000057
     80      -0.040815   0.000120   0.000065
     81      -0.000759   0.000138  -0.000058
     82       0.002070   0.000053  -0.000158
     83      -0.000930  -0.000063   0.000012
     84      -0.000123   0.000520   0.000062
     85       0.000998   0.000496   0.000052
     86       0.000799   0.000816   0.000037
     87       0.002207  -0.000528   0.000179
     88      -0.000783   0.000481  -0.000178
     89       0.000582   0.000037   0.000035
     90       0.000002   0.000009   0.000004
     91      -0.000068  -0.000010   0.000007
     92      -0.000060   0.000008  -0.000017
     93      -0.000167   0.000051  -0.000015
     94       0.000120  -0.000015   0.000011
     95      -0.000023   0.000007  -0.000007
     96       0.000161  -0.000079   0.000075
     97      -0.000336   0.000063  -0.000003
     98       0.000885  -0.000027  -0.000034
     99       0.001682  -0.000145   0.000071
    100       0.000818  -0.000056   0.000038
    101       0.000193  -0.000004  -0.000023
    102       0.000360  -0.000086   0.000041
    103      -0.000153   0.000108  -0.000036
    104      -0.000029   0.000058  -0.000050
    105       0.000632  -0.000044  -0.838750
    106       0.000134  -0.000025  -0.495577
    107       0.000056  -0.000017   0.208455
    108      -0.000778  -0.622084   0.000018
    109       0.002164  -0.627457   0.000044
    110      -0.000905   0.459656  -0.000035


-----------
IR SPECTRUM
-----------

 Mode    freq (cm**-1)   T**2         TX         TY         TZ
-------------------------------------------------------------------
  10:        11.69    2.147324  (  0.483253  -1.260626   0.569748)
  11:        53.35    2.006692  ( -1.351633  -0.420818  -0.051900)
  12:        68.33   19.492738  ( -4.252349  -0.900935   0.773679)
  13:        83.46    6.762029  (  1.986702  -1.658341  -0.254856)
  14:        98.75    6.739788  ( -0.399595  -2.022660   1.577644)
  15:       114.88    0.521898  (  0.023615   0.245124   0.679158)
  16:       151.67   18.595982  (  2.844034  -2.972093   1.293876)
  17:       177.24   39.494414  ( -5.546841   1.169117  -2.712956)
  18:       203.40   28.403919  (  3.530318  -3.731394  -1.420376)
  19:       265.27   35.471144  ( -5.441110   2.220584   0.966682)
  20:       286.13   27.362740  ( -5.094177  -0.225090  -1.166804)
  21:       289.13    5.221716  (  1.254972   1.619206  -1.012390)
  22:       312.76   16.015681  (  0.771526  -3.171438  -2.315688)
  23:       332.49   55.967508  (  5.302579  -4.355643  -2.979687)
  24:       344.74    3.066508  (  0.351907   1.593044   0.636301)
  25:       352.69    6.527708  (  0.994800   0.969961   2.144122)
  26:       368.82   16.417374  (  1.940326   2.125015   2.852511)
  27:       392.09   11.155450  ( -1.560463   2.442062   1.660344)
  28:       419.45   11.719622  ( -2.344044   2.371661   0.774792)
  29:       427.10   10.405220  (  2.502271   0.578819   1.951622)
  30:       456.24    0.346560  (  0.374963   0.239917   0.385231)
  31:       501.83  138.122180  ( -9.153187   6.831493   2.769844)
  32:       529.88    3.433747  ( -1.733771   0.159280  -0.634362)
  33:       546.04   15.154414  ( -0.308464  -3.677099  -1.240246)
  34:       566.04   46.786547  (  5.865695  -3.347249  -1.084480)
  35:       613.57    8.590085  (  2.050186   2.086621   0.181206)
  36:       661.92   55.443808  (  7.006551   1.092673   2.271149)
  37:       701.63   32.849183  ( -0.098879   3.577168   4.476971)
  38:       737.27   41.335724  ( -5.918091   2.460499   0.507812)
  39:       745.16   27.478255  (  4.190821  -2.937982  -1.132930)
  40:       753.05   14.873886  (  0.413891   1.589080   3.489614)
  41:       791.22   43.188858  ( -2.511471   5.855461  -1.610884)
  42:       798.85   40.214884  (  1.955105  -6.010840  -0.512104)
  43:       817.45   14.986265  ( -0.825176   3.515578  -1.395014)
  44:       826.53  280.260996  (-11.001046  12.579759   0.993809)
  45:       829.38   38.794292  ( -1.184961   5.387523   2.892189)
  46:       837.78   32.126218  ( -1.709547   5.238641   1.326765)
  47:       857.06   24.982435  (  1.050421   3.684890   3.209461)
  48:       866.53   34.631614  ( -2.310629  -4.165012  -3.456194)
  49:       886.64   36.287884  ( -2.566235   5.032118   2.092872)
  50:       910.98   52.374338  ( -6.564669   3.034035   0.272206)
  51:       921.88    6.765957  ( -1.756897  -1.914883   0.111767)
  52:       956.02    1.391510  (  0.208062  -0.476854   1.058693)
  53:      1018.82  175.994387  (  9.739405  -8.300035  -3.499683)
  54:      1020.92   35.716128  ( -2.806910   5.270448   0.244461)
  55:      1029.75    4.128058  ( -1.726410   0.619308   0.874084)
  56:      1045.61   40.762208  (  6.290960  -0.811753  -0.726010)
  57:      1080.63   43.886401  (  4.977005   3.606536   2.471584)
  58:      1097.87    0.963000  ( -0.896647   0.210010   0.338999)
  59:      1108.02   15.889666  (  3.900621  -0.819923   0.050464)
  60:      1122.81    2.695136  (  0.105556  -1.430194   0.799087)
  61:      1137.49   19.043945  (  3.597726  -2.469393   0.049113)
  62:      1163.49   63.873728  (  3.198067   7.002463  -2.147466)
  63:      1177.76    5.204305  (  2.204000   0.555629   0.194848)
  64:      1189.68   43.290374  (  6.120596  -2.410505  -0.134711)
  65:      1206.37    8.584054  (  1.130593   0.989809   2.515173)
  66:      1217.09   56.566054  ( -2.974633  -6.749895   1.468511)
  67:      1225.02   22.539070  (  2.656201   0.299270   3.923532)
  68:      1251.50   21.056273  ( -0.889806   3.512835   2.815050)
  69:      1280.09   20.938789  ( -2.947031  -2.095533  -2.804022)
  70:      1296.01   25.376601  (  4.109999   0.118774   2.910396)
  71:      1309.84   72.566354  ( -8.470606  -0.647857   0.628870)
  72:      1328.43   43.126542  ( -2.658558   5.710615  -1.856739)
  73:      1336.49   45.427324  (  6.329952   0.759764   2.186731)
  74:      1344.76    1.745722  (  0.446543   0.480384   1.146975)
  75:      1357.36   22.434144  ( -2.057014  -3.685225  -2.149874)
  76:      1369.92    6.253400  ( -0.269927  -0.698666  -2.385876)
  77:      1370.37   11.371014  ( -0.664249   2.868188  -1.644168)
  78:      1395.45   29.397871  (  0.526537   4.195473   3.393911)
  79:      1403.88   37.701306  ( -2.329685  -5.367666  -1.860655)
  80:      1428.68   65.687476  ( -7.330362  -1.062101  -3.290170)
  81:      1440.48   14.293888  ( -1.610929   2.277516  -2.551807)
  82:      1460.65  142.151644  ( 11.898080   0.711323   0.285232)
  83:      1480.56    5.061387  ( -2.189412   0.384603   0.346330)
  84:      1491.13   65.351006  ( -2.351342   5.935615  -4.958898)
  85:      1496.52   33.773487  (  0.593633  -3.658697   4.476050)
  86:      1501.27   94.738996  ( -0.617235   9.708494  -0.321195)
  87:      1518.78    9.403249  ( -3.055377   0.083206   0.246981)
  88:      1528.66   95.330630  ( -0.878016   9.345989  -2.685556)
  89:      1596.85   54.479680  (  3.335835   6.474063  -1.199332)
  90:      1620.43  205.854307  (-11.247773  -7.035885   5.462439)
  91:      1756.24  1447.591384  (-32.168023  19.428264   5.945774)
  92:      2295.63  135.516376  (  8.873372   1.135580   7.449168)
  93:      2327.90  236.250470  ( -7.896075 -10.529958   7.938669)
  94:      2555.62  120.460558  ( -2.552405   6.737331   8.279744)
  95:      2897.95   17.978357  (  2.384615   0.759333  -3.422774)
  96:      2914.59   95.033935  (  9.693906  -0.717008   0.740283)
  97:      2932.67  150.449951  ( -0.757050 -12.179566  -1.238949)
  98:      2961.29   55.706172  ( -6.546940  -0.462259  -3.553880)
  99:      2977.28  139.783496  (  0.926436   5.983164  10.155145)
 100:      3033.98   26.783939  (  0.223253  -0.943498   5.083690)
 101:      3051.71   14.471295  (  0.323148   1.019586  -3.650660)
 102:      3061.15    3.949064  (  0.757426  -0.099007   1.834548)
 103:      3077.51   17.299358  (  2.964019   2.902695  -0.297167)
 104:      3085.29   14.348494  (  0.690881  -1.513394   3.403060)
 105:      3087.85   32.265297  (  5.487577  -1.286081   0.705539)
 106:      3151.18   24.013005  ( -3.275600   1.961882  -3.071558)
 107:      3155.64   21.410597  (  1.343863   3.651909  -2.503635)
 108:      3284.37  248.483711  ( -4.976143 -13.036957  -7.332084)
 109:      3770.33   23.035080  (  3.210096   3.359061  -1.202943)
 110:      4276.45   16.191497  (  3.476122   1.946220  -0.565949)

The first frequency considered to be a vibration is 10
The total number of vibrations considered is 101


--------------------------
THERMOCHEMISTRY AT 298.15K
--------------------------

Temperature         ... 298.15 K
Pressure            ... 1.00 atm
Total Mass          ... 242.11 AMU

Throughout the following assumptions are being made:
  (1) The electronic state is orbitally nondegenerate
  (2) There are no thermally accessible electronically excited states
  (3) Hindered rotations indicated by low frequency modes are not
      treated as such but are treated as vibrations and this may
      cause some error
  (4) All equations used are the standard statistical mechanics
      equations for an ideal gas
  (5) All vibrations are strictly harmonic

freq.      11.69  E(vib)   ...       0.58 
freq.      53.35  E(vib)   ...       0.52 
freq.      68.33  E(vib)   ...       0.50 
freq.      83.46  E(vib)   ...       0.48 
freq.      98.75  E(vib)   ...       0.46 
freq.     114.88  E(vib)   ...       0.44 
freq.     151.67  E(vib)   ...       0.40 
freq.     177.24  E(vib)   ...       0.37 
freq.     203.40  E(vib)   ...       0.35 
freq.     265.27  E(vib)   ...       0.29 
freq.     286.13  E(vib)   ...       0.27 
freq.     289.13  E(vib)   ...       0.27 
freq.     312.76  E(vib)   ...       0.25 
freq.     332.49  E(vib)   ...       0.24 
freq.     344.74  E(vib)   ...       0.23 
freq.     352.69  E(vib)   ...       0.22 
freq.     368.82  E(vib)   ...       0.21 
freq.     392.09  E(vib)   ...       0.20 
freq.     419.45  E(vib)   ...       0.18 
freq.     427.10  E(vib)   ...       0.18 
freq.     456.24  E(vib)   ...       0.16 
freq.     501.83  E(vib)   ...       0.14 
freq.     529.88  E(vib)   ...       0.13 
freq.     546.04  E(vib)   ...       0.12 
freq.     566.04  E(vib)   ...       0.11 
freq.     613.57  E(vib)   ...       0.10 
freq.     661.92  E(vib)   ...       0.08 
freq.     701.63  E(vib)   ...       0.07 
freq.     737.27  E(vib)   ...       0.06 
freq.     745.16  E(vib)   ...       0.06 
freq.     753.05  E(vib)   ...       0.06 
freq.     791.22  E(vib)   ...       0.05 
freq.     798.85  E(vib)   ...       0.05 
freq.     817.45  E(vib)   ...       0.05 
freq.     826.53  E(vib)   ...       0.04 
freq.     829.38  E(vib)   ...       0.04 
freq.     837.78  E(vib)   ...       0.04 
freq.     857.06  E(vib)   ...       0.04 
freq.     866.53  E(vib)   ...       0.04 
freq.     886.64  E(vib)   ...       0.04 
freq.     910.98  E(vib)   ...       0.03 
freq.     921.88  E(vib)   ...       0.03 
freq.     956.02  E(vib)   ...       0.03 
freq.    1018.82  E(vib)   ...       0.02 
freq.    1020.92  E(vib)   ...       0.02 
freq.    1029.75  E(vib)   ...       0.02 
freq.    1045.61  E(vib)   ...       0.02 
freq.    1080.63  E(vib)   ...       0.02 
freq.    1097.87  E(vib)   ...       0.02 
freq.    1108.02  E(vib)   ...       0.02 
freq.    1122.81  E(vib)   ...       0.01 
freq.    1137.49  E(vib)   ...       0.01 
freq.    1163.49  E(vib)   ...       0.01 
freq.    1177.76  E(vib)   ...       0.01 
freq.    1189.68  E(vib)   ...       0.01 
freq.    1206.37  E(vib)   ...       0.01 
freq.    1217.09  E(vib)   ...       0.01 
freq.    1225.02  E(vib)   ...       0.01 
freq.    1251.50  E(vib)   ...       0.01 
freq.    1280.09  E(vib)   ...       0.01 
freq.    1296.01  E(vib)   ...       0.01 
freq.    1309.84  E(vib)   ...       0.01 
freq.    1328.43  E(vib)   ...       0.01 
freq.    1336.49  E(vib)   ...       0.01 
freq.    1344.76  E(vib)   ...       0.01 
freq.    1357.36  E(vib)   ...       0.01 
freq.    1369.92  E(vib)   ...       0.01 
freq.    1370.37  E(vib)   ...       0.01 
freq.    1395.45  E(vib)   ...       0.00 
freq.    1403.88  E(vib)   ...       0.00 
freq.    1428.68  E(vib)   ...       0.00 
freq.    1440.48  E(vib)   ...       0.00 
freq.    1460.65  E(vib)   ...       0.00 
freq.    1480.56  E(vib)   ...       0.00 
freq.    1491.13  E(vib)   ...       0.00 
freq.    1496.52  E(vib)   ...       0.00 
freq.    1501.27  E(vib)   ...       0.00 
freq.    1518.78  E(vib)   ...       0.00 
freq.    1528.66  E(vib)   ...       0.00 
freq.    1596.85  E(vib)   ...       0.00 
freq.    1620.43  E(vib)   ...       0.00 
freq.    1756.24  E(vib)   ...       0.00 
freq.    2295.63  E(vib)   ...       0.00 
freq.    2327.90  E(vib)   ...       0.00 
freq.    2555.62  E(vib)   ...       0.00 
freq.    2897.95  E(vib)   ...       0.00 
freq.    2914.59  E(vib)   ...       0.00 
freq.    2932.67  E(vib)   ...       0.00 
freq.    2961.29  E(vib)   ...       0.00 
freq.    2977.28  E(vib)   ...       0.00 
freq.    3033.98  E(vib)   ...       0.00 
freq.    3051.71  E(vib)   ...       0.00 
freq.    3061.15  E(vib)   ...       0.00 
freq.    3077.51  E(vib)   ...       0.00 
freq.    3085.29  E(vib)   ...       0.00 
freq.    3087.85  E(vib)   ...       0.00 
freq.    3151.18  E(vib)   ...       0.00 
freq.    3155.64  E(vib)   ...       0.00 
freq.    3284.37  E(vib)   ...       0.00 
freq.    3770.33  E(vib)   ...       0.00 
freq.    4276.45  E(vib)   ...       0.00 

------------
INNER ENERGY
------------

The inner energy is: U= E(el) + E(ZPE) + E(vib) + E(rot) + E(trans)
    E(el)   - is the total energy from the electronic structure calculation
              = E(kin-el) + E(nuc-el) + E(el-el) + E(nuc-nuc)
    E(ZPE)  - the the zero temperature vibrational energy from the frequency calculation
    E(vib)  - the the finite temperature correction to E(ZPE) due to population
              of excited vibrational states
    E(rot)  - is the rotational thermal energy
    E(trans)- is the translational thermal energy

Summary of contributions to the inner energy U:
Electronic energy                ...   -840.72405438 Eh
Zero point energy                ...      0.29837254 Eh     187.23 kcal/mol
Thermal vibrational correction   ...      0.01366273 Eh       8.57 kcal/mol
Thermal rotational correction    ...      0.00141627 Eh       0.89 kcal/mol
Thermal translational correction ...      0.00141627 Eh       0.89 kcal/mol
-----------------------------------------------------------------------
Total thermal energy                   -840.40918657 Eh


Summary of corrections to the electronic energy:
(perhaps to be used in another calculation)
Total thermal correction                  0.01649527 Eh      10.35 kcal/mol
Non-thermal (ZPE) correction              0.29837254 Eh     187.23 kcal/mol
-----------------------------------------------------------------------
Total correction                          0.31486781 Eh     197.58 kcal/mol


--------
ENTHALPY
--------

The enthalpy is H = U + kB*T
                kB is Boltzmann's constant
Total free energy                 ...   -840.40918657 Eh 
Thermal Enthalpy correction       ...      0.00094421 Eh       0.59 kcal/mol
-----------------------------------------------------------------------
Total Enthalpy                    ...   -840.40824236 Eh


Note: Only C1 symmetry has been detected, increase convergence thresholds 
      if your molecule has a higher symmetry. Symmetry factor of 1.0 is   
      used for the rotational entropy correction. 
 

Note: Rotational entropy computed according to Herzberg 
Infrared and Raman Spectra, Chapter V,1, Van Nostrand Reinhold, 1945 
Point Group:  C1, Symmetry Number:   1  
Rotational constants in cm-1:     0.019423     0.013445     0.009821 

Vibrational entropy computed according to the QRRHO of S. Grimme
Chem.Eur.J. 2012 18 9955


-------
ENTROPY
-------

The entropy contributions are T*S = T*(S(el)+S(vib)+S(rot)+S(trans))
     S(el)   - electronic entropy
     S(vib)  - vibrational entropy
     S(rot)  - rotational entropy
     S(trans)- translational entropy
The entropies will be listed as mutliplied by the temperature to get
units of energy

Electronic entropy                ...      0.00000000 Eh      0.00 kcal/mol
Vibrational entropy               ...      0.02384690 Eh     14.96 kcal/mol
Rotational entropy                ...      0.01558833 Eh      9.78 kcal/mol
Translational entropy             ...      0.02012351 Eh     12.63 kcal/mol
-----------------------------------------------------------------------
Final entropy term                ...      0.05955874 Eh     37.37 kcal/mol

In case the symmetry of your molecule has not been determined correctly
or in case you have a reason to use a different symmetry number we print 
out the resulting rotational entropy values for sn=1,12 :
 --------------------------------------------------------
|  sn= 1 | S(rot)=       0.01558833 Eh      9.78 kcal/mol|
|  sn= 2 | S(rot)=       0.01493387 Eh      9.37 kcal/mol|
|  sn= 3 | S(rot)=       0.01455104 Eh      9.13 kcal/mol|
|  sn= 4 | S(rot)=       0.01427942 Eh      8.96 kcal/mol|
|  sn= 5 | S(rot)=       0.01406873 Eh      8.83 kcal/mol|
|  sn= 6 | S(rot)=       0.01389659 Eh      8.72 kcal/mol|
|  sn= 7 | S(rot)=       0.01375104 Eh      8.63 kcal/mol|
|  sn= 8 | S(rot)=       0.01362496 Eh      8.55 kcal/mol|
|  sn= 9 | S(rot)=       0.01351375 Eh      8.48 kcal/mol|
|  sn=10 | S(rot)=       0.01341427 Eh      8.42 kcal/mol|
|  sn=11 | S(rot)=       0.01332428 Eh      8.36 kcal/mol|
|  sn=12 | S(rot)=       0.01324213 Eh      8.31 kcal/mol|
 --------------------------------------------------------


-------------------
GIBBS FREE ENERGY
-------------------

The Gibbs free energy is G = H - T*S

Total enthalpy                    ...   -840.40824236 Eh 
Total entropy correction          ...     -0.05955874 Eh    -37.37 kcal/mol
-----------------------------------------------------------------------
Final Gibbs free energy         ...   -840.46780110 Eh

For completeness - the Gibbs free energy minus the electronic energy
G-E(el)                           ...      0.25625328 Eh    160.80 kcal/mol


Timings for individual modules:

Sum of individual times         ...     1070.436 sec (=  17.841 min)
GTO integral calculation        ...        0.657 sec (=   0.011 min)   0.1 %
SCF iterations                  ...        5.982 sec (=   0.100 min)   0.6 %
Analytical frequency calculation...     1063.797 sec (=  17.730 min)  99.4 %
                             ****ORCA TERMINATED NORMALLY****
TOTAL RUN TIME: 0 days 0 hours 17 minutes 51 seconds 670 msec
