
                                 *****************
                                 * O   R   C   A *
                                 *****************

                                            #,                                       
                                            ###                                      
                                            ####                                     
                                            #####                                    
                                            ######                                   
                                           ########,                                 
                                     ,,################,,,,,                         
                               ,,#################################,,                 
                          ,,##########################################,,             
                       ,#########################################, ''#####,          
                    ,#############################################,,   '####,        
                  ,##################################################,,,,####,       
                ,###########''''           ''''###############################       
              ,#####''   ,,,,##########,,,,          '''####'''          '####       
            ,##' ,,,,###########################,,,                        '##       
           ' ,,###''''                  '''############,,,                           
         ,,##''                                '''############,,,,        ,,,,,,###''
      ,#''                                            '''#######################'''  
     '                                                          ''''####''''         
             ,#######,   #######,   ,#######,      ##                                
            ,#'     '#,  ##    ##  ,#'     '#,    #''#        ######   ,####,        
            ##       ##  ##   ,#'  ##            #'  '#       #        #'  '#        
            ##       ##  #######   ##           ,######,      #####,   #    #        
            '#,     ,#'  ##    ##  '#,     ,#' ,#      #,         ##   #,  ,#        
             '#######'   ##     ##  '#######'  #'      '#     #####' # '####'        



                  #######################################################
                  #                        -***-                        #
                  #          Department of theory and spectroscopy      #
                  #    Directorship and core code : Frank Neese         #
                  #        Max Planck Institute fuer Kohlenforschung    #
                  #                Kaiser Wilhelm Platz 1               #
                  #                 D-45470 Muelheim/Ruhr               #
                  #                      Germany                        #
                  #                                                     #
                  #                  All rights reserved                #
                  #                        -***-                        #
                  #######################################################


                         Program Version 5.0.2 -  RELEASE  -


 With contributions from (in alphabetic order):
   Daniel Aravena         : Magnetic Suceptibility
   Michael Atanasov       : Ab Initio Ligand Field Theory (pilot matlab implementation)
   Alexander A. Auer      : GIAO ZORA, VPT2 properties, NMR spectrum
   Ute Becker             : Parallelization
   Giovanni Bistoni       : ED, misc. LED, open-shell LED, HFLD
   Martin Brehm           : Molecular dynamics
   Dmytro Bykov           : SCF Hessian
   Vijay G. Chilkuri      : MRCI spin determinant printing, contributions to CSF-ICE
   Dipayan Datta          : RHF DLPNO-CCSD density
   Achintya Kumar Dutta   : EOM-CC, STEOM-CC
   Dmitry Ganyushin       : Spin-Orbit,Spin-Spin,Magnetic field MRCI
   Miquel Garcia          : C-PCM and meta-GGA Hessian, CC/C-PCM, Gaussian charge scheme
   Yang Guo               : DLPNO-NEVPT2, F12-NEVPT2, CIM, IAO-localization
   Andreas Hansen         : Spin unrestricted coupled pair/coupled cluster methods
   Benjamin Helmich-Paris : MC-RPA, TRAH-SCF, COSX integrals
   Lee Huntington         : MR-EOM, pCC
   Robert Izsak           : Overlap fitted RIJCOSX, COSX-SCS-MP3, EOM
   Marcus Kettner         : VPT2
   Christian Kollmar      : KDIIS, OOCD, Brueckner-CCSD(T), CCSD density, CASPT2, CASPT2-K
   Simone Kossmann        : Meta GGA functionals, TD-DFT gradient, OOMP2, MP2 Hessian
   Martin Krupicka        : Initial AUTO-CI
   Lucas Lang             : DCDCAS
   Marvin Lechner         : AUTO-CI (C++ implementation), FIC-MRCC
   Dagmar Lenk            : GEPOL surface, SMD
   Dimitrios Liakos       : Extrapolation schemes; Compound Job, initial MDCI parallelization
   Dimitrios Manganas     : Further ROCIS development; embedding schemes
   Dimitrios Pantazis     : SARC Basis sets
   Anastasios Papadopoulos: AUTO-CI, single reference methods and gradients
   Taras Petrenko         : DFT Hessian,TD-DFT gradient, ASA, ECA, R-Raman, ABS, FL, XAS/XES, NRVS
   Peter Pinski           : DLPNO-MP2, DLPNO-MP2 Gradient
   Christoph Reimann      : Effective Core Potentials
   Marius Retegan         : Local ZFS, SOC
   Christoph Riplinger    : Optimizer, TS searches, QM/MM, DLPNO-CCSD(T), (RO)-DLPNO pert. Triples
   Tobias Risthaus        : Range-separated hybrids, TD-DFT gradient, RPA, STAB
   Michael Roemelt        : Original ROCIS implementation
   Masaaki Saitow         : Open-shell DLPNO-CCSD energy and density
   Barbara Sandhoefer     : DKH picture change effects
   Avijit Sen             : IP-ROCIS
   Kantharuban Sivalingam : CASSCF convergence, NEVPT2, FIC-MRCI
   Bernardo de Souza      : ESD, SOC TD-DFT
   Georgi Stoychev        : AutoAux, RI-MP2 NMR, DLPNO-MP2 response
   Willem Van den Heuvel  : Paramagnetic NMR
   Boris Wezisla          : Elementary symmetry handling
   Frank Wennmohs         : Technical directorship


 We gratefully acknowledge several colleagues who have allowed us to
 interface, adapt or use parts of their codes:
   Stefan Grimme, W. Hujo, H. Kruse, P. Pracht,  : VdW corrections, initial TS optimization,
                  C. Bannwarth, S. Ehlert          DFT functionals, gCP, sTDA/sTD-DF
   Ed Valeev, F. Pavosevic, A. Kumar             : LibInt (2-el integral package), F12 methods
   Garnet Chan, S. Sharma, J. Yang, R. Olivares  : DMRG
   Ulf Ekstrom                                   : XCFun DFT Library
   Mihaly Kallay                                 : mrcc  (arbitrary order and MRCC methods)
   Jiri Pittner, Ondrej Demel                    : Mk-CCSD
   Frank Weinhold                                : gennbo (NPA and NBO analysis)
   Christopher J. Cramer and Donald G. Truhlar   : smd solvation model
   Lars Goerigk                                  : TD-DFT with DH, B97 family of functionals
   V. Asgeirsson, H. Jonsson                     : NEB implementation
   FAccTs GmbH                                   : IRC, NEB, NEB-TS, DLPNO-Multilevel, CI-OPT
                                                   MM, QMMM, 2- and 3-layer-ONIOM, Crystal-QMMM,
                                                   LR-CPCM, SF, NACMEs, symmetry and pop. for TD-DFT,
                                                   nearIR, NL-DFT gradient (VV10), updates on ESD,
                                                   ML-optimized integration grids
   S Lehtola, MJT Oliveira, MAL Marques          : LibXC Library
   Liviu Ungur et al                             : ANISO software


 Your calculation uses the libint2 library for the computation of 2-el integrals
 For citations please refer to: http://libint.valeyev.net

 Your ORCA version has been built with support for libXC version: 5.1.0
 For citations please refer to: https://tddft.org/programs/libxc/

 This ORCA versions uses:
   CBLAS   interface :  Fast vector & matrix operations
   LAPACKE interface :  Fast linear algebra routines
   SCALAPACK package :  Parallel linear algebra routines
   Shared memory     :  Shared parallel matrices
   BLAS/LAPACK       :  OpenBLAS 0.3.15  USE64BITINT DYNAMIC_ARCH NO_AFFINITY SkylakeX SINGLE_THREADED
        Core in use  :  SkylakeX
   Copyright (c) 2011-2014, The OpenBLAS Project


Your calculation utilizes the geometrical counterpoise correction gCP
Please cite in your paper:
H.Kruse, S. Grimme J.Chem.Phys., 136, (2012), 154101 
   

Your calculation utilizes the atom-pairwise dispersion correction
based on tight binding partial charges (D4)
Cite in your paper:
E.Caldeweyher, C.Bannwarth, S.Grimme, J.Chem.Phys., (2017), 147, 034112.
E.Caldeweyher, S.Ehlert, A.Hansen, H.Neugebauer, S.Grimme, J.Chem.Phys., (2018), in progress.
   

================================================================================

----- Orbital basis set information -----
Your calculation utilizes the basis: def2-mTZVPP
   Stefan Grimme, Andreas Hansen, Sebastian Ehlert, and Jan-Michael Mewes 
   J. Chem. Phys. 154, 000000 (2021). DOI: 10.1063/5.0040021

----- AuxJ basis set information -----
Your calculation utilizes the basis: def2-mTZVPP/J
   Stefan Grimme, Andreas Hansen, Sebastian Ehlert, and Jan-Michael Mewes 
   J. Chem. Phys. 154, 000000 (2021). DOI: 10.1063/5.0040021

================================================================================
                                        WARNINGS
                       Please study these warnings very carefully!
================================================================================

Using LibXC functional ID 497 : Re-regularized SCAN exchange by Furness et al
[ 1]  J. W. Furness, A. D. Kaplan, J. Ning, J. P. Perdew, and J. Sun, J. Phys. Chem. Lett. 11, 8208 (2020)
[ 2]  J. W. Furness, A. D. Kaplan, J. Ning, J. P. Perdew, and J. Sun, J. Phys. Chem. Lett. 11, 9248 (2020)
Using LibXC functional ID 498 : Re-regularized SCAN correlation by Furness et al
[ 1]  J. W. Furness, A. D. Kaplan, J. Ning, J. P. Perdew, and J. Sun, J. Phys. Chem. Lett. 11, 8208 (2020)
[ 2]  J. W. Furness, A. D. Kaplan, J. Ning, J. P. Perdew, and J. Sun, J. Phys. Chem. Lett. 11, 9248 (2020)
Using LibXC functional ID 497 : Re-regularized SCAN exchange by Furness et al
[ 1]  J. W. Furness, A. D. Kaplan, J. Ning, J. P. Perdew, and J. Sun, J. Phys. Chem. Lett. 11, 8208 (2020)
[ 2]  J. W. Furness, A. D. Kaplan, J. Ning, J. P. Perdew, and J. Sun, J. Phys. Chem. Lett. 11, 9248 (2020)
Using LibXC functional ID 498 : Re-regularized SCAN correlation by Furness et al
[ 1]  J. W. Furness, A. D. Kaplan, J. Ning, J. P. Perdew, and J. Sun, J. Phys. Chem. Lett. 11, 8208 (2020)
[ 2]  J. W. Furness, A. D. Kaplan, J. Ning, J. P. Perdew, and J. Sun, J. Phys. Chem. Lett. 11, 9248 (2020)

INFO   : the flag for use of the SHARK integral package has been found!

================================================================================
                                       INPUT FILE
================================================================================
NAME = orca.inp
|  1> !r2scan-3c tightscf freq
|  2>         !moread
|  3>             %moinp "/beegfs/si93yaq/projekte/01_daza/02_4ethoxy/20_prot_addition/01_tsopt_irc_endopt_no_iterative/redund/qm_calcs/irc_000.083.orca.gbw" 
|  4> 
|  5>         %pal nprocs 24 end
|  6>         %maxcore 6000
|  7> 
|  8>         
|  9>         
| 10> 
| 11>         *xyz 0 1
| 12>         C -3.59038827 4.18410298 1.99050971
| 13> C -4.70759146 3.61664053 1.36542568
| 14> C -2.33578918 3.99881535 1.43830006
| 15> C -2.14000924 3.25572455 0.27181666
| 16> C -3.27053032 2.71377415 -0.34901968
| 17> C -4.55127758 2.88662604 0.18652272
| 18> O -5.89696979 3.83030952 1.99623672
| 19> C -7.10989064 3.39296387 1.36900035
| 20> O -3.07622039 2.03327791 -1.51608122
| 21> C -0.75995445 2.98036003 -0.25275927
| 22> N 0.04716002 2.13428166 0.65511371
| 23> N -0.16176703 -0.41978813 -0.59461992
| 24> C 1.34063396 1.81766902 0.02718581
| 25> C 1.95601552 0.47793305 0.45404029
| 26> C 1.17577279 -0.73725091 -0.12380909
| 27> C -0.65923570 1.04649169 1.32716343
| 28> C -1.15852085 -0.07961413 0.41617505
| 29> N 3.31294747 0.41683632 -0.05605457
| 30> C 4.27231574 0.27812712 0.78910352
| 31> C 5.65159569 0.22808638 0.39512088
| 32> C 6.64891008 0.09272483 1.36766903
| 33> C 6.04278092 0.33290821 -0.96954690
| 34> C 7.99067350 0.05818152 1.04490132
| 35> C 7.39002887 0.29832191 -1.30411619
| 36> C 8.35752725 0.16617597 -0.30878804
| 37> O 5.13735689 0.46720095 -1.94703632
| 38> O 9.63847589 0.17284009 -0.75462063
| 39> C 10.71056108 -0.03527260 0.17878946
| 40> H -3.73389811 4.75638178 2.90062419
| 41> H -1.46430513 4.41958173 1.93467828
| 42> H -5.39704698 2.46246254 -0.34352961
| 43> C -7.55114522 4.33064627 0.25830747
| 44> H -7.84483665 3.38917322 2.17986782
| 45> H -7.00385078 2.35753879 1.01646905
| 46> H -3.75639758 1.36037586 -1.67466692
| 47> H -0.21203839 3.92722325 -0.37475104
| 48> H 2.06826124 2.60826411 0.26686035
| 49> H 1.26712456 1.81649263 -1.07892574
| 50> H 1.96698080 0.42932849 1.55525059
| 51> H 1.11310732 -1.54465934 0.61647835
| 52> H 1.74699269 -1.11572882 -0.98157324
| 53> H -1.51505490 1.47092067 1.86341391
| 54> H 0.00104304 0.63498174 2.09937414
| 55> H -2.06046903 0.23131202 -0.12052989
| 56> H -1.40946079 -0.98019057 0.99400578
| 57> H 4.06805321 0.20131284 1.87032522
| 58> H 6.34976116 0.01405222 2.41065279
| 59> H 8.72808770 -0.04971295 1.82926886
| 60> H 7.69207087 0.38291572 -2.34217370
| 61> H 4.23889850 0.48573369 -1.50834316
| 62> C 10.87965363 -1.50156797 0.53460255
| 63> H 10.56603580 0.59349458 1.06714313
| 64> H 11.59539553 0.33569729 -0.34694798
| 65> O -1.04036336 -0.66207376 -2.96647724
| 66> C -0.86595225 -1.56138476 -2.08765081
| 67> C -2.02220729 -2.23382894 -1.47466267
| 68> C -1.90135693 -3.39103043 -0.70926036
| 69> C -3.31580321 -1.72585762 -1.73523521
| 70> C -4.43626323 -2.39948624 -1.26902105
| 71> C -3.01177935 -4.07172765 -0.22518870
| 72> C -4.28840869 -3.57049192 -0.52782614
| 73> O -3.46725092 -0.59725151 -2.45273045
| 74> O -5.46229562 -4.14031642 -0.13780510
| 75> C -5.44476650 -5.42228046 0.50393684
| 76> H 0.06264664 -2.16322590 -2.10807100
| 77> H -0.90619691 -3.78516393 -0.50754331
| 78> H -5.42957730 -2.02953916 -1.49951467
| 79> H -2.87754107 -4.98104777 0.34711260
| 80> H -2.51880525 -0.40302907 -2.80968264
| 81> C -5.24401912 -6.55448618 -0.48822460
| 82> H -6.42890283 -5.49751381 0.97673354
| 83> H -4.69254776 -5.43804104 1.30412669
| 84> H -8.50235285 3.98763071 -0.16267535
| 85> H -6.81542300 4.37756790 -0.54932203
| 86> H -7.69137931 5.34143247 0.65214187
| 87> H 11.74118434 -1.62497466 1.19948009
| 88> H 11.05414888 -2.09112360 -0.36998277
| 89> H 9.99579016 -1.90205874 1.03876936
| 90> H -6.03267921 -6.53649591 -1.24588355
| 91> H -5.28478398 -7.51750955 0.03200849
| 92> H -4.27871136 -6.47767080 -0.99652137
| 93> H -0.83983078 2.53585427 -1.25960094
| 94> H -0.11271278 0.33356169 -1.27545833
| 95>         *
| 96>                                   ****END OF INPUT****
================================================================================

                       ****************************
                       * Single Point Calculation *
                       ****************************

---------------------------------
CARTESIAN COORDINATES (ANGSTROEM)
---------------------------------
  C     -3.590388    4.184103    1.990510
  C     -4.707591    3.616641    1.365426
  C     -2.335789    3.998815    1.438300
  C     -2.140009    3.255725    0.271817
  C     -3.270530    2.713774   -0.349020
  C     -4.551278    2.886626    0.186523
  O     -5.896970    3.830310    1.996237
  C     -7.109891    3.392964    1.369000
  O     -3.076220    2.033278   -1.516081
  C     -0.759954    2.980360   -0.252759
  N      0.047160    2.134282    0.655114
  N     -0.161767   -0.419788   -0.594620
  C      1.340634    1.817669    0.027186
  C      1.956016    0.477933    0.454040
  C      1.175773   -0.737251   -0.123809
  C     -0.659236    1.046492    1.327163
  C     -1.158521   -0.079614    0.416175
  N      3.312947    0.416836   -0.056055
  C      4.272316    0.278127    0.789104
  C      5.651596    0.228086    0.395121
  C      6.648910    0.092725    1.367669
  C      6.042781    0.332908   -0.969547
  C      7.990673    0.058182    1.044901
  C      7.390029    0.298322   -1.304116
  C      8.357527    0.166176   -0.308788
  O      5.137357    0.467201   -1.947036
  O      9.638476    0.172840   -0.754621
  C     10.710561   -0.035273    0.178789
  H     -3.733898    4.756382    2.900624
  H     -1.464305    4.419582    1.934678
  H     -5.397047    2.462463   -0.343530
  C     -7.551145    4.330646    0.258307
  H     -7.844837    3.389173    2.179868
  H     -7.003851    2.357539    1.016469
  H     -3.756398    1.360376   -1.674667
  H     -0.212038    3.927223   -0.374751
  H      2.068261    2.608264    0.266860
  H      1.267125    1.816493   -1.078926
  H      1.966981    0.429328    1.555251
  H      1.113107   -1.544659    0.616478
  H      1.746993   -1.115729   -0.981573
  H     -1.515055    1.470921    1.863414
  H      0.001043    0.634982    2.099374
  H     -2.060469    0.231312   -0.120530
  H     -1.409461   -0.980191    0.994006
  H      4.068053    0.201313    1.870325
  H      6.349761    0.014052    2.410653
  H      8.728088   -0.049713    1.829269
  H      7.692071    0.382916   -2.342174
  H      4.238898    0.485734   -1.508343
  C     10.879654   -1.501568    0.534603
  H     10.566036    0.593495    1.067143
  H     11.595396    0.335697   -0.346948
  O     -1.040363   -0.662074   -2.966477
  C     -0.865952   -1.561385   -2.087651
  C     -2.022207   -2.233829   -1.474663
  C     -1.901357   -3.391030   -0.709260
  C     -3.315803   -1.725858   -1.735235
  C     -4.436263   -2.399486   -1.269021
  C     -3.011779   -4.071728   -0.225189
  C     -4.288409   -3.570492   -0.527826
  O     -3.467251   -0.597252   -2.452730
  O     -5.462296   -4.140316   -0.137805
  C     -5.444766   -5.422280    0.503937
  H      0.062647   -2.163226   -2.108071
  H     -0.906197   -3.785164   -0.507543
  H     -5.429577   -2.029539   -1.499515
  H     -2.877541   -4.981048    0.347113
  H     -2.518805   -0.403029   -2.809683
  C     -5.244019   -6.554486   -0.488225
  H     -6.428903   -5.497514    0.976734
  H     -4.692548   -5.438041    1.304127
  H     -8.502353    3.987631   -0.162675
  H     -6.815423    4.377568   -0.549322
  H     -7.691379    5.341432    0.652142
  H     11.741184   -1.624975    1.199480
  H     11.054149   -2.091124   -0.369983
  H      9.995790   -1.902059    1.038769
  H     -6.032679   -6.536496   -1.245884
  H     -5.284784   -7.517510    0.032008
  H     -4.278711   -6.477671   -0.996521
  H     -0.839831    2.535854   -1.259601
  H     -0.112713    0.333562   -1.275458

----------------------------
CARTESIAN COORDINATES (A.U.)
----------------------------
  NO LB      ZA    FRAG     MASS         X           Y           Z
   0 C     6.0000    0    12.011   -6.784851    7.906809    3.761518
   1 C     6.0000    0    12.011   -8.896059    6.834460    2.580281
   2 C     6.0000    0    12.011   -4.414002    7.556666    2.717993
   3 C     6.0000    0    12.011   -4.044031    6.152428    0.513659
   4 C     6.0000    0    12.011   -6.180407    5.128290   -0.659552
   5 C     6.0000    0    12.011   -8.600668    5.454933    0.352477
   6 O     8.0000    0    15.999  -11.143658    7.238236    3.772341
   7 C     6.0000    0    12.011  -13.435746    6.411772    2.587036
   8 O     8.0000    0    15.999   -5.813214    3.842338   -2.864978
   9 C     6.0000    0    12.011   -1.436106    5.632064   -0.477646
  10 N     7.0000    0    14.007    0.089120    4.033208    1.237985
  11 N     7.0000    0    14.007   -0.305695   -0.793285   -1.123669
  12 C     6.0000    0    12.011    2.533431    3.434897    0.051374
  13 C     6.0000    0    12.011    3.696334    0.903163    0.858012
  14 C     6.0000    0    12.011    2.221889   -1.393202   -0.233965
  15 C     6.0000    0    12.011   -1.245775    1.977583    2.507975
  16 C     6.0000    0    12.011   -2.189287   -0.150449    0.786457
  17 N     7.0000    0    14.007    6.260563    0.787706   -0.105928
  18 C     6.0000    0    12.011    8.073507    0.525584    1.491190
  19 C     6.0000    0    12.011   10.679968    0.431021    0.746670
  20 C     6.0000    0    12.011   12.564619    0.175225    2.584520
  21 C     6.0000    0    12.011   11.419201    0.629105   -1.832178
  22 C     6.0000    0    12.011   15.100185    0.109947    1.974577
  23 C     6.0000    0    12.011   13.965131    0.563747   -2.464422
  24 C     6.0000    0    12.011   15.793438    0.314027   -0.583525
  25 O     8.0000    0    15.999    9.708198    0.882882   -3.679365
  26 O     8.0000    0    15.999   18.214080    0.326620   -1.426026
  27 C     6.0000    0    12.011   20.240027   -0.066656    0.337863
  28 H     1.0000    0     1.008   -7.056045    8.988259    5.481385
  29 H     1.0000    0     1.008   -2.767136    8.351799    3.656012
  30 H     1.0000    0     1.008  -10.198941    4.653380   -0.649177
  31 C     6.0000    0    12.011  -14.269596    8.183735    0.488130
  32 H     1.0000    0     1.008  -14.824593    6.404609    4.119353
  33 H     1.0000    0     1.008  -13.235360    4.455103    1.920848
  34 H     1.0000    0     1.008   -7.098563    2.570738   -3.164662
  35 H     1.0000    0     1.008   -0.400694    7.421376   -0.708177
  36 H     1.0000    0     1.008    3.908447    4.928905    0.504293
  37 H     1.0000    0     1.008    2.394518    3.432674   -2.038874
  38 H     1.0000    0     1.008    3.717055    0.811313    2.938998
  39 H     1.0000    0     1.008    2.103468   -2.918983    1.164975
  40 H     1.0000    0     1.008    3.301338   -2.108422   -1.854905
  41 H     1.0000    0     1.008   -2.863039    2.779637    3.521342
  42 H     1.0000    0     1.008    0.001971    1.199942    3.967242
  43 H     1.0000    0     1.008   -3.893722    0.437116   -0.227768
  44 H     1.0000    0     1.008   -2.663495   -1.852292    1.878399
  45 H     1.0000    0     1.008    7.687506    0.380426    3.534402
  46 H     1.0000    0     1.008   11.999310    0.026555    4.555474
  47 H     1.0000    0     1.008   16.493695   -0.093944    3.456817
  48 H     1.0000    0     1.008   14.535907    0.723606   -4.426067
  49 H     1.0000    0     1.008    8.010357    0.917904   -2.850355
  50 C     6.0000    0    12.011   20.559566   -2.837552    1.010252
  51 H     1.0000    0     1.008   19.966914    1.121542    2.016608
  52 H     1.0000    0     1.008   21.912122    0.634376   -0.655637
  53 O     8.0000    0    15.999   -1.966002   -1.251138   -5.605830
  54 C     6.0000    0    12.011   -1.636413   -2.950590   -3.945088
  55 C     6.0000    0    12.011   -3.821418   -4.221325   -2.786709
  56 C     6.0000    0    12.011   -3.593044   -6.408119   -1.340308
  57 C     6.0000    0    12.011   -6.265960   -3.261398   -3.279119
  58 C     6.0000    0    12.011   -8.383323   -4.534372   -2.398102
  59 C     6.0000    0    12.011   -5.691438   -7.694450   -0.425545
  60 C     6.0000    0    12.011   -8.103918   -6.747252   -0.997447
  61 O     8.0000    0    15.999   -6.552155   -1.128642   -4.634989
  62 O     8.0000    0    15.999  -10.322243   -7.824064   -0.260414
  63 C     6.0000    0    12.011  -10.289118  -10.246625    0.952303
  64 H     1.0000    0     1.008    0.118385   -4.087905   -3.983677
  65 H     1.0000    0     1.008   -1.712464   -7.152923   -0.959118
  66 H     1.0000    0     1.008  -10.260414   -3.835273   -2.833672
  67 H     1.0000    0     1.008   -5.437765   -9.412816    0.655948
  68 H     1.0000    0     1.008   -4.759852   -0.761615   -5.309531
  69 C     6.0000    0    12.011   -9.909760  -12.386184   -0.922611
  70 H     1.0000    0     1.008  -12.148866  -10.388796    1.845759
  71 H     1.0000    0     1.008   -8.867630  -10.276408    2.464442
  72 H     1.0000    0     1.008  -16.067118    7.535530   -0.307412
  73 H     1.0000    0     1.008  -12.879283    8.272404   -1.038068
  74 H     1.0000    0     1.008  -14.534600   10.093845    1.232370
  75 H     1.0000    0     1.008   22.187623   -3.070757    2.266689
  76 H     1.0000    0     1.008   20.889314   -3.951651   -0.699166
  77 H     1.0000    0     1.008   18.889306   -3.594370    1.962990
  78 H     1.0000    0     1.008  -11.400112  -12.352187   -2.354379
  79 H     1.0000    0     1.008   -9.986794  -14.206034    0.060487
  80 H     1.0000    0     1.008   -8.085593  -12.241024   -1.883152
  81 H     1.0000    0     1.008   -1.587050    4.792070   -2.380301
  82 H     1.0000    0     1.008   -0.212996    0.630340   -2.410267

--------------------------------
INTERNAL COORDINATES (ANGSTROEM)
--------------------------------
 C      0   0   0     0.000000000000     0.00000000     0.00000000
 C      1   0   0     1.400316622935     0.00000000     0.00000000
 C      1   2   0     1.383215774929   119.41595121     0.00000000
 C      3   1   2     1.396852620868   122.12497097   359.77227843
 C      4   3   1     1.399008902562   117.60671273     1.16631581
 C      2   1   3     1.395409392898   119.98399903   359.16837889
 O      2   1   3     1.363157297360   115.21554758   178.75125083
 C      7   2   1     1.433831813634   119.19887690   174.37460913
 O      5   4   3     1.364867803012   117.22924490   177.51966366
 C      4   3   1     1.501851107338   121.19892865   184.67180141
 N     10   4   3     1.480376885688   113.05261801    64.84830623
 N     11  10   4     2.851097534348   101.72511605   100.90495548
 C     11  10   4     1.472281170451   109.89759791   175.40426574
 C     13  11  10     1.534858847190   114.91930211   209.16875003
 C     12  11  10     1.453085759484    89.21147282   147.77400562
 C     11  10   4     1.460798671350   116.36483747    38.81221631
 C     12  11  10     1.459774982433    62.46858094   269.13402693
 N     14  13  11     1.450928631445   108.29718524   189.85112897
 C     18  14  13     1.286048178234   118.10940108   120.74199545
 C     19  18  14     1.435318632483   122.69916260   181.03398148
 C     20  19  18     1.399574451677   119.82772542   179.17661514
 C     20  19  18     1.423492764290   121.64524832     0.12666485
 C     21  20  19     1.380471408662   122.17803124   180.92277512
 C     22  20  19     1.388599964258   119.72068167   179.09992106
 C     24  22  20     1.394343498190   120.23714196   359.77941251
 O     22  20  19     1.339146287875   121.42303840   359.20424703
 O     25  24  22     1.356333486691   114.84739274   181.31836484
 C     27  25  24     1.436639113511   119.37294455   183.60343909
 H      1   2   3     1.084622729714   118.86977476   180.21949613
 H      3   1   2     1.087621318857   119.52127192   181.38991129
 H      6   2   1     1.084525714424   122.01620899   182.17541401
 C      8   7   2     1.519076219722   112.16612576   282.29956772
 H      8   7   2     1.094379303782   104.18335559   162.86337334
 H      8   7   2     1.098921228151   110.24905058    47.88970570
 H      9   5   4     0.969838957217   112.69985065   153.09358287
 H     10   4   3     1.100747000061   109.77894058   305.77737305
 H     13  11  10     1.100875079224   109.47460690    88.05841199
 H     13  11  10     1.108552108304   111.56345742   332.05918919
 H     14  13  11     1.102336956400   108.68092406   309.18331470
 H     15  12  11     1.097205918589   109.07509892   113.19175536
 H     15  12  11     1.097860209471   107.52357201   229.65275779
 H     16  11  10     1.095504924431   108.32860464   304.91433673
 H     16  11  10     1.096183303140   108.20148530   190.73265374
 H     17  12  11     1.094640481062   106.81642104   100.49198012
 H     17  12  11     1.099043734481   109.20838370   216.58494312
 H     19  18  14     1.103024922350   120.90069089     0.38809346
 H     21  20  19     1.087885370581   118.50620482     0.83511521
 H     23  21  20     1.081967354787   119.69843066   180.11546309
 H     24  22  20     1.084411765208   119.92949777   180.30779884
 H     26  22  20     1.000011314758   106.80431146     0.81202334
 C     28  27  25     1.518294226283   112.04104564    78.52723986
 H     28  27  25     1.097910727795   110.15205359   312.85760141
 H     28  27  25     1.094052338333   104.01664264   197.88501686
 O     12  11  10     2.540933093183   121.32719430    13.82874927
 C     54  12  11     1.269454766456    51.23133900   193.84465133
 C     55  54  12     1.471346781871   120.27946921   111.07732342
 C     56  55  54     1.392681153073   122.71949063   167.19906137
 C     56  55  54     1.413974297781   118.55370397   350.79929234
 C     58  56  55     1.388006418244   120.15023077   174.49774806
 C     57  56  55     1.389500639859   121.94956656   185.13614852
 C     59  58  56     1.393730663436   120.04993889     0.80288653
 O     58  56  55     1.345915145845   120.16096826   355.44700489
 O     61  59  58     1.361920297546   114.35528195   180.46025487
 C     63  61  59     1.433726538590   119.45596089   173.28273278
 H     55  54  12     1.106763588336   119.19151535   262.88004345
 H     57  56  55     1.089208175460   118.79872324     3.55407096
 H     59  58  56     1.084740057581   120.15344349   182.22512261
 H     60  57  56     1.082779651839   119.76650155   178.57753672
 H     62  58  56     1.031836426517   103.81722581     8.87351911
 C     64  63  61     1.518740802771   112.07277955   282.44529169
 H     64  63  61     1.094404446495   104.11348805   163.02481891
 H     64  63  61     1.098355691355   110.32217521    47.99216955
 H     32   8   7     1.095300034012   109.87543321   182.60126842
 H     32   8   7     1.093505479471   111.78139936    62.34545730
 H     32   8   7     1.093828083719   110.14474874   302.00932355
 H     51  28  27     1.095228979988   109.79709810   176.66639528
 H     51  28  27     1.093754558526   110.15180376    57.34763262
 H     51  28  27     1.093522593622   111.82208803   296.95556313
 H     70  64  63     1.093780358156   110.17909871   302.17637579
 H     70  64  63     1.095316508096   109.89193785   182.72265922
 H     70  64  63     1.093656838553   111.58800448    62.46884088
 H     10   4   3     1.103492522501   109.02831190   189.65019610
 H     12  11  10     1.016603763159    68.04867222    36.29234180

---------------------------
INTERNAL COORDINATES (A.U.)
---------------------------
 C      0   0   0     0.000000000000     0.00000000     0.00000000
 C      1   0   0     2.646214918124     0.00000000     0.00000000
 C      1   2   0     2.613898998736   119.41595121     0.00000000
 C      3   1   2     2.639668902891   122.12497097   359.77227843
 C      4   3   1     2.643743684761   117.60671273     1.16631581
 C      2   1   3     2.636941597278   119.98399903   359.16837889
 O      2   1   3     2.575993969468   115.21554758   178.75125083
 C      7   2   1     2.709549449872   119.19887690   174.37460913
 O      5   4   3     2.579226356699   117.22924490   177.51966366
 C      4   3   1     2.838087286795   121.19892865   184.67180141
 N     10   4   3     2.797506888938   113.05261801    64.84830623
 N     11  10   4     5.387793521016   101.72511605   100.90495548
 C     11  10   4     2.782208204282   109.89759791   175.40426574
 C     13  11  10     2.900462875414   114.91930211   209.16875003
 C     12  11  10     2.745934134526    89.21147282   147.77400562
 C     11  10   4     2.760509425648   116.36483747    38.81221631
 C     12  11  10     2.758574933948    62.46858094   269.13402693
 N     14  13  11     2.741857753296   108.29718524   189.85112897
 C     18  14  13     2.430278851891   118.10940108   120.74199545
 C     19  18  14     2.712359130307   122.69916260   181.03398148
 C     20  19  18     2.644812417703   119.82772542   179.17661514
 C     20  19  18     2.690011478126   121.64524832     0.12666485
 C     21  20  19     2.608712898081   122.17803124   180.92277512
 C     22  20  19     2.624073642021   119.72068167   179.09992106
 C     24  22  20     2.634927348192   120.23714196   359.77941251
 O     22  20  19     2.530619737342   121.42303840   359.20424703
 O     25  24  22     2.563098836112   114.84739274   181.31836484
 C     27  25  24     2.714854477816   119.37294455   183.60343909
 H      1   2   3     2.049639917785   118.86977476   180.21949613
 H      3   1   2     2.055306430055   119.52127192   181.38991129
 H      6   2   1     2.049456585457   122.01620899   182.17541401
 C      8   7   2     2.870638031826   112.16612576   282.29956772
 H      8   7   2     2.068077170780   104.18335559   162.86337334
 H      8   7   2     2.076660163958   110.24905058    47.88970570
 H      9   5   4     1.832730023147   112.69985065   153.09358287
 H     10   4   3     2.080110372850   109.77894058   305.77737305
 H     13  11  10     2.080352407392   109.47460690    88.05841199
 H     13  11  10     2.094859889876   111.56345742   332.05918919
 H     14  13  11     2.083114954896   108.68092406   309.18331470
 H     15  12  11     2.073418698651   109.07509892   113.19175536
 H     15  12  11     2.074655129229   107.52357201   229.65275779
 H     16  11  10     2.070204285537   108.32860464   304.91433673
 H     16  11  10     2.071486235512   108.20148530   190.73265374
 H     17  12  11     2.068570724311   106.81642104   100.49198012
 H     17  12  11     2.076891667372   109.20838370   216.58494312
 H     19  18  14     2.084415022131   120.90069089     0.38809346
 H     21  20  19     2.055805415498   118.50620482     0.83511521
 H     23  21  20     2.044621986390   119.69843066   180.11546309
 H     24  22  20     2.049241252645   119.92949777   180.30779884
 H     26  22  20     1.889747515715   106.80431146     0.81202334
 C     28  27  25     2.869160278389   112.04104564    78.52723986
 H     28  27  25     2.074750595026   110.15205359   312.85760141
 H     28  27  25     2.067459295625   104.01664264   197.88501686
 O     12  11  10     4.801667670733   121.32719430    13.82874927
 C     54  12  11     2.398921848004    51.23133900   193.84465133
 C     55  54  12     2.780442465762   120.27946921   111.07732342
 C     56  55  54     2.631785971181   122.71949063   167.19906137
 C     56  55  54     2.672024183210   118.55370397   350.79929234
 C     58  56  55     2.622952002606   120.15023077   174.49774806
 C     57  56  55     2.625775672243   121.94956656   185.13614852
 C     59  58  56     2.633769258342   120.04993889     0.80288653
 O     58  56  55     2.543411025145   120.16096826   355.44700489
 O     61  59  58     2.573656378590   114.35528195   180.46025487
 C     63  61  59     2.709350508869   119.45596089   173.28273278
 H     55  54  12     2.091480076950   119.19151535   262.88004345
 H     57  56  55     2.058305154448   118.79872324     3.55407096
 H     59  58  56     2.049861635322   120.15344349   182.22512261
 H     60  57  56     2.046157005358   119.76650155   178.57753672
 H     62  58  56     1.949888261121   103.81722581     8.87351911
 C     64  63  61     2.870004185648   112.07277955   282.44529169
 H     64  63  61     2.068124683622   104.11348805   163.02481891
 H     64  63  61     2.075591454295   110.32217521    47.99216955
 H     32   8   7     2.069817098758   109.87543321   182.60126842
 H     32   8   7     2.066425882143   111.78139936    62.34545730
 H     32   8   7     2.067035515820   110.14474874   302.00932355
 H     51  28  27     2.069682826112   109.79709810   176.66639528
 H     51  28  27     2.066896573342   110.15180376    57.34763262
 H     51  28  27     2.066458223200   111.82208803   296.95556313
 H     70  64  63     2.066945327578   110.17909871   302.17637579
 H     70  64  63     2.069848230265   109.89193785   182.72265922
 H     70  64  63     2.066711909355   111.58800448    62.46884088
 H     10   4   3     2.085298658357   109.02831190   189.65019610
 H     12  11  10     1.921102699084    68.04867222    36.29234180

---------------------
BASIS SET INFORMATION
---------------------
There are 4 groups of distinct atoms

 Group   1 Type C   : 11s6p1d contracted to 5s3p1d pattern {62111/411/1}
 Group   2 Type O   : 11s6p2d contracted to 5s3p2d pattern {62111/411/11}
 Group   3 Type N   : 11s6p2d contracted to 5s3p2d pattern {62111/411/11}
 Group   4 Type H   : 4s1p contracted to 2s1p pattern {31/1}

Atom   0C    basis set group =>   1
Atom   1C    basis set group =>   1
Atom   2C    basis set group =>   1
Atom   3C    basis set group =>   1
Atom   4C    basis set group =>   1
Atom   5C    basis set group =>   1
Atom   6O    basis set group =>   2
Atom   7C    basis set group =>   1
Atom   8O    basis set group =>   2
Atom   9C    basis set group =>   1
Atom  10N    basis set group =>   3
Atom  11N    basis set group =>   3
Atom  12C    basis set group =>   1
Atom  13C    basis set group =>   1
Atom  14C    basis set group =>   1
Atom  15C    basis set group =>   1
Atom  16C    basis set group =>   1
Atom  17N    basis set group =>   3
Atom  18C    basis set group =>   1
Atom  19C    basis set group =>   1
Atom  20C    basis set group =>   1
Atom  21C    basis set group =>   1
Atom  22C    basis set group =>   1
Atom  23C    basis set group =>   1
Atom  24C    basis set group =>   1
Atom  25O    basis set group =>   2
Atom  26O    basis set group =>   2
Atom  27C    basis set group =>   1
Atom  28H    basis set group =>   4
Atom  29H    basis set group =>   4
Atom  30H    basis set group =>   4
Atom  31C    basis set group =>   1
Atom  32H    basis set group =>   4
Atom  33H    basis set group =>   4
Atom  34H    basis set group =>   4
Atom  35H    basis set group =>   4
Atom  36H    basis set group =>   4
Atom  37H    basis set group =>   4
Atom  38H    basis set group =>   4
Atom  39H    basis set group =>   4
Atom  40H    basis set group =>   4
Atom  41H    basis set group =>   4
Atom  42H    basis set group =>   4
Atom  43H    basis set group =>   4
Atom  44H    basis set group =>   4
Atom  45H    basis set group =>   4
Atom  46H    basis set group =>   4
Atom  47H    basis set group =>   4
Atom  48H    basis set group =>   4
Atom  49H    basis set group =>   4
Atom  50C    basis set group =>   1
Atom  51H    basis set group =>   4
Atom  52H    basis set group =>   4
Atom  53O    basis set group =>   2
Atom  54C    basis set group =>   1
Atom  55C    basis set group =>   1
Atom  56C    basis set group =>   1
Atom  57C    basis set group =>   1
Atom  58C    basis set group =>   1
Atom  59C    basis set group =>   1
Atom  60C    basis set group =>   1
Atom  61O    basis set group =>   2
Atom  62O    basis set group =>   2
Atom  63C    basis set group =>   1
Atom  64H    basis set group =>   4
Atom  65H    basis set group =>   4
Atom  66H    basis set group =>   4
Atom  67H    basis set group =>   4
Atom  68H    basis set group =>   4
Atom  69C    basis set group =>   1
Atom  70H    basis set group =>   4
Atom  71H    basis set group =>   4
Atom  72H    basis set group =>   4
Atom  73H    basis set group =>   4
Atom  74H    basis set group =>   4
Atom  75H    basis set group =>   4
Atom  76H    basis set group =>   4
Atom  77H    basis set group =>   4
Atom  78H    basis set group =>   4
Atom  79H    basis set group =>   4
Atom  80H    basis set group =>   4
Atom  81H    basis set group =>   4
Atom  82H    basis set group =>   4
---------------------------------
AUXILIARY/J BASIS SET INFORMATION
---------------------------------
There are 4 groups of distinct atoms

 Group   1 Type C   : 8s3p3d contracted to 6s3p3d pattern {311111/111/111}
 Group   2 Type O   : 8s3p3d contracted to 6s3p3d pattern {311111/111/111}
 Group   3 Type N   : 8s3p3d contracted to 6s3p3d pattern {311111/111/111}
 Group   4 Type H   : 5s2p1d contracted to 3s1p1d pattern {311/2/1}

Atom   0C    basis set group =>   1
Atom   1C    basis set group =>   1
Atom   2C    basis set group =>   1
Atom   3C    basis set group =>   1
Atom   4C    basis set group =>   1
Atom   5C    basis set group =>   1
Atom   6O    basis set group =>   2
Atom   7C    basis set group =>   1
Atom   8O    basis set group =>   2
Atom   9C    basis set group =>   1
Atom  10N    basis set group =>   3
Atom  11N    basis set group =>   3
Atom  12C    basis set group =>   1
Atom  13C    basis set group =>   1
Atom  14C    basis set group =>   1
Atom  15C    basis set group =>   1
Atom  16C    basis set group =>   1
Atom  17N    basis set group =>   3
Atom  18C    basis set group =>   1
Atom  19C    basis set group =>   1
Atom  20C    basis set group =>   1
Atom  21C    basis set group =>   1
Atom  22C    basis set group =>   1
Atom  23C    basis set group =>   1
Atom  24C    basis set group =>   1
Atom  25O    basis set group =>   2
Atom  26O    basis set group =>   2
Atom  27C    basis set group =>   1
Atom  28H    basis set group =>   4
Atom  29H    basis set group =>   4
Atom  30H    basis set group =>   4
Atom  31C    basis set group =>   1
Atom  32H    basis set group =>   4
Atom  33H    basis set group =>   4
Atom  34H    basis set group =>   4
Atom  35H    basis set group =>   4
Atom  36H    basis set group =>   4
Atom  37H    basis set group =>   4
Atom  38H    basis set group =>   4
Atom  39H    basis set group =>   4
Atom  40H    basis set group =>   4
Atom  41H    basis set group =>   4
Atom  42H    basis set group =>   4
Atom  43H    basis set group =>   4
Atom  44H    basis set group =>   4
Atom  45H    basis set group =>   4
Atom  46H    basis set group =>   4
Atom  47H    basis set group =>   4
Atom  48H    basis set group =>   4
Atom  49H    basis set group =>   4
Atom  50C    basis set group =>   1
Atom  51H    basis set group =>   4
Atom  52H    basis set group =>   4
Atom  53O    basis set group =>   2
Atom  54C    basis set group =>   1
Atom  55C    basis set group =>   1
Atom  56C    basis set group =>   1
Atom  57C    basis set group =>   1
Atom  58C    basis set group =>   1
Atom  59C    basis set group =>   1
Atom  60C    basis set group =>   1
Atom  61O    basis set group =>   2
Atom  62O    basis set group =>   2
Atom  63C    basis set group =>   1
Atom  64H    basis set group =>   4
Atom  65H    basis set group =>   4
Atom  66H    basis set group =>   4
Atom  67H    basis set group =>   4
Atom  68H    basis set group =>   4
Atom  69C    basis set group =>   1
Atom  70H    basis set group =>   4
Atom  71H    basis set group =>   4
Atom  72H    basis set group =>   4
Atom  73H    basis set group =>   4
Atom  74H    basis set group =>   4
Atom  75H    basis set group =>   4
Atom  76H    basis set group =>   4
Atom  77H    basis set group =>   4
Atom  78H    basis set group =>   4
Atom  79H    basis set group =>   4
Atom  80H    basis set group =>   4
Atom  81H    basis set group =>   4
Atom  82H    basis set group =>   4


           ************************************************************
           *        Program running with 24 parallel MPI-processes    *
           *              working on a common directory               *
           ************************************************************
------------------------------------------------------------------------------
                           ORCA GTO INTEGRAL CALCULATION
                           -- RI-GTO INTEGRALS CHOSEN --
------------------------------------------------------------------------------
------------------------------------------------------------------------------
                   ___                                                        
                  /   \      - P O W E R E D   B Y -                         
                 /     \                                                     
                 |  |  |   _    _      __       _____    __    __             
                 |  |  |  | |  | |    /  \     |  _  \  |  |  /  |          
                  \  \/   | |  | |   /    \    | | | |  |  | /  /          
                 / \  \   | |__| |  /  /\  \   | |_| |  |  |/  /          
                |  |  |   |  __  | /  /__\  \  |    /   |      \           
                |  |  |   | |  | | |   __   |  |    \   |  |\   \          
                \     /   | |  | | |  |  |  |  | |\  \  |  | \   \       
                 \___/    |_|  |_| |__|  |__|  |_| \__\ |__|  \__/        
                                                                              
                      - O R C A' S   B I G   F R I E N D -                    
                                      &                                       
                       - I N T E G R A L  F E E D E R -                       
                                                                              
 v1 FN, 2020, v2 2021                                                         
------------------------------------------------------------------------------


Reading SHARK input file orca.SHARKINP.tmp ... ok
----------------------
SHARK INTEGRAL PACKAGE
----------------------

Number of atoms                             ...     83
Number of basis functions                   ...   1053
Number of shells                            ...    511
Maximum angular momentum                    ...      2
Integral batch strategy                     ... SHARK/LIBINT Hybrid
RI-J (if used) integral strategy            ... SPLIT-RIJ (Revised 2003 algorithm where possible)
Printlevel                                  ...      1
Contraction scheme used                     ... SEGMENTED contraction
Coulomb Range Separation                    ... NOT USED
Exchange Range Separation                   ... NOT USED
Finite Nucleus Model                        ... NOT USED
Auxiliary Coulomb fitting basis             ... AVAILABLE
   # of basis functions in Aux-J            ...   1711
   # of shells in Aux-J                     ...    709
   Maximum angular momentum in Aux-J        ...      2
Auxiliary J/K fitting basis                 ... NOT available
Auxiliary Correlation fitting basis         ... NOT available
Auxiliary 'external' fitting basis          ... NOT available
Integral threshold                          ...     2.500000e-11
Primitive cut-off                           ...     2.500000e-12
Primitive pair pre-selection threshold      ...     2.500000e-12

Calculating pre-screening integrals         ... done (  0.1 sec) Dimension = 511
Organizing shell pair data                  ... done (  0.4 sec)
Shell pair information
Total number of shell pairs                 ...    130816
Shell pairs after pre-screening             ...     58914
Total number of primitive shell pairs       ...    472953
Primitive shell pairs kept                  ...    126694
          la=0 lb=0:  18133 shell pairs
          la=1 lb=0:  22670 shell pairs
          la=1 lb=1:   7132 shell pairs
          la=2 lb=0:   6371 shell pairs
          la=2 lb=1:   4025 shell pairs
          la=2 lb=2:    583 shell pairs

Calculating one electron integrals          ... done (  0.1 sec)
Calculating RI/J V-Matrix + Cholesky decomp.... done (  0.1 sec)
Calculating Nuclear repulsion               ... done (  0.0 sec) ENN=   4852.061464919991 Eh

SHARK setup successfully completed in   1.1 seconds

Maximum memory used throughout the entire GTOINT-calculation: 88.0 MB


           ************************************************************
           *        Program running with 24 parallel MPI-processes    *
           *              working on a common directory               *
           ************************************************************
-------------------------------------------------------------------------------
                                 ORCA SCF
-------------------------------------------------------------------------------

------------
SCF SETTINGS
------------
Hamiltonian:
 Density Functional     Method          .... DFT(GTOs)
  Functional kind                       .... Exchange
  Functional name                       .... Re-regularized SCAN exchange by Furness et al
  Functional family                     .... MGGA
  Functional refs                              
    [ 0] J. W. Furness, A. D. Kaplan, J. Ning, J. P. Perdew, and J. Sun, J. Phys. Chem. Lett. 11, 8208 (2020)
    [ 1] J. W. Furness, A. D. Kaplan, J. Ning, J. P. Perdew, and J. Sun, J. Phys. Chem. Lett. 11, 9248 (2020)
  Functional external parameters         .... 8
 Parameter  0 :         c1 parameter
 Parameter  1 :         c2 parameter
 Parameter  2 :          d parameter
 Parameter  3 :         k1 parameter
 Parameter  4 :       taur parameter
 Parameter  5 :     alphar parameter
 Parameter  6 :        eta parameter
 Parameter  7 :        dp2 parameter
  Functional kind                       .... Correlation
  Functional name                       .... Re-regularized SCAN correlation by Furness et al
  Functional family                     .... MGGA
  Functional refs                              
    [ 0] J. W. Furness, A. D. Kaplan, J. Ning, J. P. Perdew, and J. Sun, J. Phys. Chem. Lett. 11, 8208 (2020)
    [ 1] J. W. Furness, A. D. Kaplan, J. Ning, J. P. Perdew, and J. Sun, J. Phys. Chem. Lett. 11, 9248 (2020)
  Functional external parameters         .... 0
 Gradients option       PostSCFGGA      .... off
   Density functional embedding theory  .... OFF
 RI-approximation to the Coulomb term is turned on
   Number of AuxJ basis functions       .... 1711


General Settings:
 Integral files         IntName         .... orca
 Hartree-Fock type      HFTyp           .... RHF
 Total Charge           Charge          ....    0
 Multiplicity           Mult            ....    1
 Number of Electrons    NEL             ....  310
 Basis Dimension        Dim             .... 1053
 Nuclear Repulsion      ENuc            ....   4852.0614649200 Eh

Convergence Acceleration:
 DIIS                   CNVDIIS         .... on
   Start iteration      DIISMaxIt       ....    12
   Startup error        DIISStart       ....  0.200000
   # of expansion vecs  DIISMaxEq       ....     5
   Bias factor          DIISBfac        ....   1.050
   Max. coefficient     DIISMaxC        ....  10.000
 Trust-Rad. Augm. Hess. CNVTRAH         .... auto
   Auto Start mean grad. ratio tolernc. ....  1.125000
   Auto Start start iteration           ....     1
   Auto Start num. interpolation iter.  ....    10
   Max. Number of Micro iterations      ....    16
   Max. Number of Macro iterations      .... Maxiter - #DIIS iter
   Number of Davidson start vectors     ....     2
   Converg. threshold I  (grad. norm)   ....   1.000e-05
   Converg. threshold II (energy diff.) ....   1.000e-08
   Grad. Scal. Fac. for Micro threshold ....   0.100
   Minimum threshold for Micro iter.    ....   0.010
   NR start threshold (gradient norm)   ....   0.001
   Initial trust radius                 ....   0.400
   Minimum AH scaling param. (alpha)    ....   1.000
   Maximum AH scaling param. (alpha)    .... 1000.000
   Orbital update algorithm             .... Taylor
   White noise on init. David. guess    .... on
   Maximum white noise                  ....   0.010
   Quad. conv. algorithm                .... NR
   COSX micro iterations for RIJONX calc.... off
 SOSCF                  CNVSOSCF        .... on
   Start iteration      SOSCFMaxIt      ....   150
   Startup grad/error   SOSCFStart      ....  0.003300
 Level Shifting         CNVShift        .... on
   Level shift para.    LevelShift      ....    0.2500
   Turn off err/grad.   ShiftErr        ....    0.0010
 Zerner damping         CNVZerner       .... off
 Static damping         CNVDamp         .... on
   Fraction old density DampFac         ....    0.7000
   Max. Damping (<1)    DampMax         ....    0.9800
   Min. Damping (>=0)   DampMin         ....    0.0000
   Turn off err/grad.   DampErr         ....    0.1000
 Fernandez-Rico         CNVRico         .... off

SCF Procedure:
 Maximum # iterations   MaxIter         ....   125
 SCF integral mode      SCFMode         .... Direct
   Integral package                     .... SHARK and LIBINT hybrid scheme
 Reset frequency        DirectResetFreq ....    20
 Integral Threshold     Thresh          ....  2.500e-11 Eh
 Primitive CutOff       TCut            ....  2.500e-12 Eh

Convergence Tolerance:
 Convergence Check Mode ConvCheckMode   .... Total+1el-Energy
 Convergence forced     ConvForced      .... 0
 Energy Change          TolE            ....  1.000e-08 Eh
 1-El. energy change                    ....  1.000e-05 Eh
 Orbital Gradient       TolG            ....  1.000e-05
 Orbital Rotation angle TolX            ....  1.000e-05
 DIIS Error             TolErr          ....  5.000e-07


Diagonalization of the overlap matrix:
Smallest eigenvalue                        ... 1.808e-05
Time for diagonalization                   ...    0.185 sec
Threshold for overlap eigenvalues          ... 1.000e-08
Number of eigenvalues below threshold      ... 0
Time for construction of square roots      ...    0.106 sec
Total time needed                          ...    0.297 sec

---------------------
INITIAL GUESS: MOREAD
---------------------
Guess MOs are being read from file: /beegfs/si93yaq/projekte/01_daza/02_4ethoxy/20_prot_addition/01_tsopt_irc_endopt_no_iterative/redund/qm_calcs/irc_000.083.orca.gbw
Input Geometry matches current geometry (good)
Input basis set matches current basis set (good)
MOs were renormalized
MOs were reorthogonalized (Cholesky)
                      ------------------
                      INITIAL GUESS DONE (   0.7 sec)
                      ------------------
-------------------
DFT GRID GENERATION
-------------------

General Integration Accuracy     IntAcc      ... 4.388
Radial Grid Type                 RadialGrid  ... OptM3 with GC (2021)
Angular Grid (max. ang.)         AngularGrid ... 4 (Lebedev-302)
Angular grid pruning method      GridPruning ... 4 (adaptive)
Weight generation scheme         WeightScheme... Becke
Basis function cutoff            BFCut       ... 1.0000e-11
Integration weight cutoff        WCut        ... 1.0000e-14
Angular grids for H and He will be reduced by one unit
Partially contracted basis set               ... off
Rotationally invariant grid construction     ... off

Total number of grid points                  ...   381509
Total number of batches                      ...     6001
Average number of points per batch           ...       63
Average number of grid points per atom       ...     4596
Time for grid setup =    2.432 sec

--------------
SCF ITERATIONS
--------------
ITER       Energy         Delta-E        Max-DP      RMS-DP      [F,P]     Damp
               ***  Starting incremental Fock matrix formation  ***
                      *** Initiating the SOSCF procedure ***
                      *** Re-Reading the Fockian *** 
                      *** Removing any level shift *** 
ITER      Energy       Delta-E        Grad      Rot      Max-DP    RMS-DP
  0  -1934.49473762 -1934.4947376223  0.000001  0.000001  0.000208  0.000001
               *** Restarting incremental Fock matrix formation ***
                  ***Gradient check signals convergence***
              ***Rediagonalizing the Fockian in SOSCF/NRSCF***

               *****************************************************
               *                     SUCCESS                       *
               *           SCF CONVERGED AFTER   1 CYCLES          *
               *****************************************************


----------------
TOTAL SCF ENERGY
----------------

Total Energy       :        -1934.49473762 Eh          -52640.27799 eV

Components:
Nuclear Repulsion  :         4852.06146492 Eh          132031.30480 eV
Electronic Energy  :        -6786.55620254 Eh         -184671.58279 eV
One Electron Energy:       -12291.08382393 Eh         -334457.39433 eV
Two Electron Energy:         5504.52762139 Eh          149785.81154 eV

Virial components:
Potential Energy   :        -3860.49739615 Eh         -105049.47476 eV
Kinetic Energy     :         1926.00265853 Eh           52409.19677 eV
Virial Ratio       :            2.00440917


DFT components:
N(Alpha)           :      154.999940473191 electrons
N(Beta)            :      154.999940473191 electrons
N(Total)           :      309.999880946383 electrons
E(X)               :     -259.191425363023 Eh       
E(C)               :      -10.145732271756 Eh       
E(XC)              :     -269.337157634780 Eh       
DFET-embed. en.    :        0.000000000000 Eh       

---------------
SCF CONVERGENCE
---------------

  Last Energy change         ...    1.2960e-11  Tolerance :   1.0000e-08
  Last MAX-Density change    ...    1.8432e-04  Tolerance :   1.0000e-07
  Last RMS-Density change    ...    8.5201e-07  Tolerance :   5.0000e-09
  Last Orbital Gradient      ...    1.1248e-06  Tolerance :   1.0000e-05
  Last Orbital Rotation      ...    7.4018e-06  Tolerance :   1.0000e-05

             **** THE GBW FILE WAS UPDATED (orca.gbw) ****
             **** DENSITY orca.scfp WAS UPDATED ****
             **** ENERGY FILE WAS UPDATED (orca.en.tmp) ****
             **** THE GBW FILE WAS UPDATED (orca.gbw) ****
             **** DENSITY orca.scfp WAS UPDATED ****
----------------
ORBITAL ENERGIES
----------------

  NO   OCC          E(Eh)            E(eV) 
   0   2.0000     -18.994395      -516.8638 
   1   2.0000     -18.985403      -516.6191 
   2   2.0000     -18.982461      -516.5390 
   3   2.0000     -18.970967      -516.2263 
   4   2.0000     -18.968097      -516.1482 
   5   2.0000     -18.952991      -515.7371 
   6   2.0000     -18.909509      -514.5539 
   7   2.0000     -14.192808      -386.2059 
   8   2.0000     -14.170071      -385.5872 
   9   2.0000     -14.157646      -385.2491 
  10   2.0000     -10.112732      -275.1814 
  11   2.0000     -10.109765      -275.1007 
  12   2.0000     -10.105716      -274.9905 
  13   2.0000     -10.100481      -274.8481 
  14   2.0000     -10.099553      -274.8228 
  15   2.0000     -10.095496      -274.7124 
  16   2.0000     -10.094409      -274.6828 
  17   2.0000     -10.094009      -274.6720 
  18   2.0000     -10.092267      -274.6245 
  19   2.0000     -10.091845      -274.6131 
  20   2.0000     -10.091814      -274.6122 
  21   2.0000     -10.083250      -274.3792 
  22   2.0000     -10.077973      -274.2356 
  23   2.0000     -10.065299      -273.8907 
  24   2.0000     -10.061277      -273.7813 
  25   2.0000     -10.058161      -273.6965 
  26   2.0000     -10.055791      -273.6320 
  27   2.0000     -10.054246      -273.5899 
  28   2.0000     -10.045636      -273.3557 
  29   2.0000     -10.044581      -273.3269 
  30   2.0000     -10.039245      -273.1817 
  31   2.0000     -10.038347      -273.1573 
  32   2.0000     -10.033205      -273.0174 
  33   2.0000     -10.032502      -272.9982 
  34   2.0000     -10.031779      -272.9786 
  35   2.0000     -10.031359      -272.9672 
  36   2.0000     -10.030139      -272.9340 
  37   2.0000     -10.029367      -272.9130 
  38   2.0000     -10.028385      -272.8862 
  39   2.0000     -10.028334      -272.8848 
  40   2.0000     -10.022407      -272.7236 
  41   2.0000     -10.021524      -272.6995 
  42   2.0000      -1.040741       -28.3200 
  43   2.0000      -1.031274       -28.0624 
  44   2.0000      -1.027990       -27.9730 
  45   2.0000      -1.020809       -27.7776 
  46   2.0000      -1.016752       -27.6672 
  47   2.0000      -1.009202       -27.4618 
  48   2.0000      -0.965362       -26.2688 
  49   2.0000      -0.925091       -25.1730 
  50   2.0000      -0.902549       -24.5596 
  51   2.0000      -0.876761       -23.8579 
  52   2.0000      -0.827781       -22.5251 
  53   2.0000      -0.817185       -22.2367 
  54   2.0000      -0.814892       -22.1743 
  55   2.0000      -0.768239       -20.9048 
  56   2.0000      -0.750740       -20.4287 
  57   2.0000      -0.748823       -20.3765 
  58   2.0000      -0.745628       -20.2896 
  59   2.0000      -0.723161       -19.6782 
  60   2.0000      -0.718857       -19.5611 
  61   2.0000      -0.716360       -19.4931 
  62   2.0000      -0.711014       -19.3477 
  63   2.0000      -0.706687       -19.2299 
  64   2.0000      -0.704509       -19.1707 
  65   2.0000      -0.688562       -18.7367 
  66   2.0000      -0.665757       -18.1162 
  67   2.0000      -0.644361       -17.5340 
  68   2.0000      -0.631360       -17.1802 
  69   2.0000      -0.628848       -17.1118 
  70   2.0000      -0.610760       -16.6196 
  71   2.0000      -0.596496       -16.2315 
  72   2.0000      -0.586750       -15.9663 
  73   2.0000      -0.585153       -15.9228 
  74   2.0000      -0.583196       -15.8696 
  75   2.0000      -0.572833       -15.5876 
  76   2.0000      -0.568715       -15.4755 
  77   2.0000      -0.563389       -15.3306 
  78   2.0000      -0.553850       -15.0710 
  79   2.0000      -0.549217       -14.9450 
  80   2.0000      -0.535107       -14.5610 
  81   2.0000      -0.516483       -14.0542 
  82   2.0000      -0.511610       -13.9216 
  83   2.0000      -0.502673       -13.6784 
  84   2.0000      -0.499650       -13.5962 
  85   2.0000      -0.492002       -13.3881 
  86   2.0000      -0.485671       -13.2158 
  87   2.0000      -0.479497       -13.0478 
  88   2.0000      -0.471388       -12.8271 
  89   2.0000      -0.465030       -12.6541 
  90   2.0000      -0.461232       -12.5508 
  91   2.0000      -0.458894       -12.4871 
  92   2.0000      -0.455667       -12.3993 
  93   2.0000      -0.445431       -12.1208 
  94   2.0000      -0.442963       -12.0536 
  95   2.0000      -0.435281       -11.8446 
  96   2.0000      -0.432149       -11.7594 
  97   2.0000      -0.427147       -11.6232 
  98   2.0000      -0.426451       -11.6043 
  99   2.0000      -0.422030       -11.4840 
 100   2.0000      -0.420887       -11.4529 
 101   2.0000      -0.414509       -11.2794 
 102   2.0000      -0.413431       -11.2500 
 103   2.0000      -0.409646       -11.1470 
 104   2.0000      -0.409054       -11.1309 
 105   2.0000      -0.406594       -11.0640 
 106   2.0000      -0.403695       -10.9851 
 107   2.0000      -0.401249       -10.9185 
 108   2.0000      -0.397559       -10.8181 
 109   2.0000      -0.390843       -10.6354 
 110   2.0000      -0.384529       -10.4636 
 111   2.0000      -0.383983       -10.4487 
 112   2.0000      -0.380291       -10.3482 
 113   2.0000      -0.377731       -10.2786 
 114   2.0000      -0.376318       -10.2401 
 115   2.0000      -0.372419       -10.1340 
 116   2.0000      -0.369395       -10.0518 
 117   2.0000      -0.367916       -10.0115 
 118   2.0000      -0.364894        -9.9293 
 119   2.0000      -0.363298        -9.8858 
 120   2.0000      -0.361579        -9.8391 
 121   2.0000      -0.355448        -9.6722 
 122   2.0000      -0.354190        -9.6380 
 123   2.0000      -0.349113        -9.4999 
 124   2.0000      -0.344807        -9.3827 
 125   2.0000      -0.343759        -9.3541 
 126   2.0000      -0.339283        -9.2324 
 127   2.0000      -0.338283        -9.2051 
 128   2.0000      -0.335516        -9.1299 
 129   2.0000      -0.334424        -9.1001 
 130   2.0000      -0.333471        -9.0742 
 131   2.0000      -0.329571        -8.9681 
 132   2.0000      -0.326686        -8.8896 
 133   2.0000      -0.322348        -8.7715 
 134   2.0000      -0.317549        -8.6410 
 135   2.0000      -0.315106        -8.5745 
 136   2.0000      -0.313214        -8.5230 
 137   2.0000      -0.308677        -8.3995 
 138   2.0000      -0.301560        -8.2059 
 139   2.0000      -0.300168        -8.1680 
 140   2.0000      -0.293932        -7.9983 
 141   2.0000      -0.292585        -7.9617 
 142   2.0000      -0.280804        -7.6411 
 143   2.0000      -0.278710        -7.5841 
 144   2.0000      -0.271280        -7.3819 
 145   2.0000      -0.248326        -6.7573 
 146   2.0000      -0.225815        -6.1447 
 147   2.0000      -0.216788        -5.8991 
 148   2.0000      -0.215634        -5.8677 
 149   2.0000      -0.210949        -5.7402 
 150   2.0000      -0.207377        -5.6430 
 151   2.0000      -0.203746        -5.5442 
 152   2.0000      -0.194524        -5.2933 
 153   2.0000      -0.188923        -5.1408 
 154   2.0000      -0.179045        -4.8721 
 155   0.0000      -0.075076        -2.0429 
 156   0.0000      -0.047638        -1.2963 
 157   0.0000      -0.029178        -0.7940 
 158   0.0000      -0.028256        -0.7689 
 159   0.0000      -0.019589        -0.5330 
 160   0.0000      -0.011315        -0.3079 
 161   0.0000       0.014326         0.3898 
 162   0.0000       0.030837         0.8391 
 163   0.0000       0.043456         1.1825 
 164   0.0000       0.054997         1.4965 
 165   0.0000       0.056941         1.5494 
 166   0.0000       0.061290         1.6678 
 167   0.0000       0.065523         1.7830 
 168   0.0000       0.070161         1.9092 
 169   0.0000       0.072020         1.9598 
 170   0.0000       0.077193         2.1005 
 171   0.0000       0.080667         2.1951 
 172   0.0000       0.082247         2.2381 
 173   0.0000       0.086315         2.3488 
 174   0.0000       0.088731         2.4145 
 175   0.0000       0.091147         2.4802 
 176   0.0000       0.096912         2.6371 
 177   0.0000       0.100611         2.7378 
 178   0.0000       0.104865         2.8535 
 179   0.0000       0.106988         2.9113 
 180   0.0000       0.109976         2.9926 
 181   0.0000       0.112561         3.0629 
 182   0.0000       0.112864         3.0712 
 183   0.0000       0.114547         3.1170 
 184   0.0000       0.116018         3.1570 
 185   0.0000       0.117991         3.2107 
 186   0.0000       0.120583         3.2812 
 187   0.0000       0.122311         3.3283 
 188   0.0000       0.122864         3.3433 
 189   0.0000       0.126419         3.4400 
 190   0.0000       0.128657         3.5009 
 191   0.0000       0.130413         3.5487 
 192   0.0000       0.133810         3.6412 
 193   0.0000       0.134286         3.6541 
 194   0.0000       0.136306         3.7091 
 195   0.0000       0.137363         3.7378 
 196   0.0000       0.142400         3.8749 
 197   0.0000       0.145796         3.9673 
 198   0.0000       0.147273         4.0075 
 199   0.0000       0.149758         4.0751 
 200   0.0000       0.151035         4.1099 
 201   0.0000       0.153993         4.1904 
 202   0.0000       0.157332         4.2812 
 203   0.0000       0.159862         4.3501 
 204   0.0000       0.164205         4.4682 
 205   0.0000       0.165280         4.4975 
 206   0.0000       0.166658         4.5350 
 207   0.0000       0.168244         4.5782 
 208   0.0000       0.169257         4.6057 
 209   0.0000       0.171825         4.6756 
 210   0.0000       0.173945         4.7333 
 211   0.0000       0.175591         4.7781 
 212   0.0000       0.176781         4.8104 
 213   0.0000       0.177591         4.8325 
 214   0.0000       0.179701         4.8899 
 215   0.0000       0.181490         4.9386 
 216   0.0000       0.185017         5.0346 
 217   0.0000       0.187146         5.0925 
 218   0.0000       0.190224         5.1762 
 219   0.0000       0.193100         5.2545 
 220   0.0000       0.193595         5.2680 
 221   0.0000       0.195766         5.3271 
 222   0.0000       0.199793         5.4366 
 223   0.0000       0.200583         5.4581 
 224   0.0000       0.202938         5.5222 
 225   0.0000       0.204284         5.5589 
 226   0.0000       0.207803         5.6546 
 227   0.0000       0.209910         5.7119 
 228   0.0000       0.211912         5.7664 
 229   0.0000       0.214799         5.8450 
 230   0.0000       0.215631         5.8676 
 231   0.0000       0.217193         5.9101 
 232   0.0000       0.218810         5.9541 
 233   0.0000       0.221273         6.0211 
 234   0.0000       0.221676         6.0321 
 235   0.0000       0.227301         6.1852 
 236   0.0000       0.229374         6.2416 
 237   0.0000       0.230339         6.2678 
 238   0.0000       0.234058         6.3690 
 239   0.0000       0.235118         6.3979 
 240   0.0000       0.238315         6.4849 
 241   0.0000       0.240815         6.5529 
 242   0.0000       0.245114         6.6699 
 243   0.0000       0.246416         6.7053 
 244   0.0000       0.248367         6.7584 
 245   0.0000       0.249295         6.7837 
 246   0.0000       0.251928         6.8553 
 247   0.0000       0.255066         6.9407 
 248   0.0000       0.258129         7.0241 
 249   0.0000       0.263593         7.1727 
 250   0.0000       0.263967         7.1829 
 251   0.0000       0.267516         7.2795 
 252   0.0000       0.269117         7.3230 
 253   0.0000       0.269393         7.3306 
 254   0.0000       0.273243         7.4353 
 255   0.0000       0.274777         7.4771 
 256   0.0000       0.275164         7.4876 
 257   0.0000       0.280351         7.6287 
 258   0.0000       0.281833         7.6691 
 259   0.0000       0.285543         7.7700 
 260   0.0000       0.289089         7.8665 
 261   0.0000       0.291103         7.9213 
 262   0.0000       0.295852         8.0505 
 263   0.0000       0.297430         8.0935 
 264   0.0000       0.299346         8.1456 
 265   0.0000       0.302085         8.2202 
 266   0.0000       0.305867         8.3231 
 267   0.0000       0.307815         8.3761 
 268   0.0000       0.311347         8.4722 
 269   0.0000       0.315018         8.5721 
 270   0.0000       0.316793         8.6204 
 271   0.0000       0.317562         8.6413 
 272   0.0000       0.320860         8.7310 
 273   0.0000       0.324962         8.8427 
 274   0.0000       0.326903         8.8955 
 275   0.0000       0.329951         8.9784 
 276   0.0000       0.331281         9.0146 
 277   0.0000       0.333391         9.0720 
 278   0.0000       0.337461         9.1828 
 279   0.0000       0.338804         9.2193 
 280   0.0000       0.340121         9.2552 
 281   0.0000       0.342987         9.3332 
 282   0.0000       0.346097         9.4178 
 283   0.0000       0.346579         9.4309 
 284   0.0000       0.351474         9.5641 
 285   0.0000       0.353243         9.6122 
 286   0.0000       0.356379         9.6976 
 287   0.0000       0.360003         9.7962 
 288   0.0000       0.363577         9.8934 
 289   0.0000       0.366601         9.9757 
 290   0.0000       0.372842        10.1455 
 291   0.0000       0.373765        10.1707 
 292   0.0000       0.376002        10.2315 
 293   0.0000       0.377359        10.2685 
 294   0.0000       0.377690        10.2775 
 295   0.0000       0.382715        10.4142 
 296   0.0000       0.384032        10.4500 
 297   0.0000       0.388856        10.5813 
 298   0.0000       0.389818        10.6075 
 299   0.0000       0.392130        10.6704 
 300   0.0000       0.393506        10.7079 
 301   0.0000       0.397359        10.8127 
 302   0.0000       0.398815        10.8523 
 303   0.0000       0.405704        11.0398 
 304   0.0000       0.406517        11.0619 
 305   0.0000       0.408281        11.1099 
 306   0.0000       0.412289        11.2190 
 307   0.0000       0.418521        11.3885 
 308   0.0000       0.421008        11.4562 
 309   0.0000       0.423379        11.5207 
 310   0.0000       0.424841        11.5605 
 311   0.0000       0.427416        11.6306 
 312   0.0000       0.431486        11.7413 
 313   0.0000       0.433709        11.8018 
 314   0.0000       0.436288        11.8720 
 315   0.0000       0.439215        11.9517 
 316   0.0000       0.439461        11.9583 
 317   0.0000       0.442455        12.0398 
 318   0.0000       0.444539        12.0965 
 319   0.0000       0.448005        12.1908 
 320   0.0000       0.449161        12.2223 
 321   0.0000       0.455378        12.3915 
 322   0.0000       0.457604        12.4520 
 323   0.0000       0.460885        12.5413 
 324   0.0000       0.462184        12.5767 
 325   0.0000       0.465297        12.6614 
 326   0.0000       0.468480        12.7480 
 327   0.0000       0.472214        12.8496 
 328   0.0000       0.477857        13.0031 
 329   0.0000       0.481209        13.0944 
 330   0.0000       0.485486        13.2107 
 331   0.0000       0.488125        13.2826 
 332   0.0000       0.491186        13.3659 
 333   0.0000       0.501173        13.6376 
 334   0.0000       0.505082        13.7440 
 335   0.0000       0.506743        13.7892 
 336   0.0000       0.509687        13.8693 
 337   0.0000       0.514246        13.9934 
 338   0.0000       0.515328        14.0228 
 339   0.0000       0.519935        14.1482 
 340   0.0000       0.522737        14.2244 
 341   0.0000       0.527368        14.3504 
 342   0.0000       0.533748        14.5240 
 343   0.0000       0.537527        14.6268 
 344   0.0000       0.539765        14.6877 
 345   0.0000       0.540198        14.6995 
 346   0.0000       0.542824        14.7710 
 347   0.0000       0.548472        14.9247 
 348   0.0000       0.550686        14.9849 
 349   0.0000       0.556208        15.1352 
 350   0.0000       0.560554        15.2534 
 351   0.0000       0.562175        15.2976 
 352   0.0000       0.563104        15.3228 
 353   0.0000       0.565654        15.3922 
 354   0.0000       0.568632        15.4733 
 355   0.0000       0.569905        15.5079 
 356   0.0000       0.572378        15.5752 
 357   0.0000       0.575274        15.6540 
 358   0.0000       0.578678        15.7466 
 359   0.0000       0.582908        15.8617 
 360   0.0000       0.584300        15.8996 
 361   0.0000       0.588327        16.0092 
 362   0.0000       0.594363        16.1735 
 363   0.0000       0.594660        16.1815 
 364   0.0000       0.597655        16.2630 
 365   0.0000       0.598350        16.2819 
 366   0.0000       0.603346        16.4179 
 367   0.0000       0.608760        16.5652 
 368   0.0000       0.609042        16.5729 
 369   0.0000       0.611066        16.6279 
 370   0.0000       0.614083        16.7100 
 371   0.0000       0.616299        16.7704 
 372   0.0000       0.621861        16.9217 
 373   0.0000       0.624731        16.9998 
 374   0.0000       0.626953        17.0603 
 375   0.0000       0.631617        17.1872 
 376   0.0000       0.635719        17.2988 
 377   0.0000       0.637206        17.3393 
 378   0.0000       0.641005        17.4426 
 379   0.0000       0.644419        17.5355 
 380   0.0000       0.645438        17.5633 
 381   0.0000       0.649392        17.6709 
 382   0.0000       0.656898        17.8751 
 383   0.0000       0.659209        17.9380 
 384   0.0000       0.662832        18.0366 
 385   0.0000       0.664751        18.0888 
 386   0.0000       0.667304        18.1583 
 387   0.0000       0.670186        18.2367 
 388   0.0000       0.674067        18.3423 
 389   0.0000       0.677479        18.4351 
 390   0.0000       0.678231        18.4556 
 391   0.0000       0.682456        18.5706 
 392   0.0000       0.687021        18.6948 
 393   0.0000       0.692332        18.8393 
 394   0.0000       0.692892        18.8545 
 395   0.0000       0.696064        18.9409 
 396   0.0000       0.699192        19.0260 
 397   0.0000       0.701527        19.0895 
 398   0.0000       0.709834        19.3156 
 399   0.0000       0.711164        19.3517 
 400   0.0000       0.714859        19.4523 
 401   0.0000       0.717767        19.5314 
 402   0.0000       0.719262        19.5721 
 403   0.0000       0.721628        19.6365 
 404   0.0000       0.725236        19.7347 
 405   0.0000       0.728935        19.8353 
 406   0.0000       0.731243        19.8981 
 407   0.0000       0.735488        20.0136 
 408   0.0000       0.739503        20.1229 
 409   0.0000       0.745481        20.2856 
 410   0.0000       0.748765        20.3749 
 411   0.0000       0.754755        20.5379 
 412   0.0000       0.761285        20.7156 
 413   0.0000       0.767641        20.8886 
 414   0.0000       0.774070        21.0635 
 415   0.0000       0.777128        21.1467 
 416   0.0000       0.778364        21.1804 
 417   0.0000       0.783874        21.3303 
 418   0.0000       0.787740        21.4355 
 419   0.0000       0.798415        21.7260 
 420   0.0000       0.807271        21.9670 
 421   0.0000       0.808824        22.0092 
 422   0.0000       0.817724        22.2514 
 423   0.0000       0.825894        22.4737 
 424   0.0000       0.829244        22.5649 
 425   0.0000       0.835168        22.7261 
 426   0.0000       0.837576        22.7916 
 427   0.0000       0.842847        22.9350 
 428   0.0000       0.855485        23.2789 
 429   0.0000       0.858719        23.3669 
 430   0.0000       0.859932        23.3999 
 431   0.0000       0.865852        23.5610 
 432   0.0000       0.869971        23.6731 
 433   0.0000       0.875095        23.8125 
 434   0.0000       0.876233        23.8435 
 435   0.0000       0.886852        24.1325 
 436   0.0000       0.890253        24.2250 
 437   0.0000       0.893540        24.3144 
 438   0.0000       0.907374        24.6909 
 439   0.0000       0.910869        24.7860 
 440   0.0000       0.916820        24.9479 
 441   0.0000       0.924705        25.1625 
 442   0.0000       0.930111        25.3096 
 443   0.0000       0.942494        25.6466 
 444   0.0000       0.944141        25.6914 
 445   0.0000       0.952828        25.9278 
 446   0.0000       0.958428        26.0801 
 447   0.0000       0.967268        26.3207 
 448   0.0000       0.977651        26.6032 
 449   0.0000       0.983047        26.7501 
 450   0.0000       0.988413        26.8961 
 451   0.0000       0.991796        26.9881 
 452   0.0000       1.000046        27.2126 
 453   0.0000       1.003608        27.3096 
 454   0.0000       1.025049        27.8930 
 455   0.0000       1.027691        27.9649 
 456   0.0000       1.035518        28.1779 
 457   0.0000       1.038155        28.2496 
 458   0.0000       1.039845        28.2956 
 459   0.0000       1.042797        28.3759 
 460   0.0000       1.045919        28.4609 
 461   0.0000       1.048402        28.5285 
 462   0.0000       1.056789        28.7567 
 463   0.0000       1.058828        28.8122 
 464   0.0000       1.065070        28.9820 
 465   0.0000       1.067402        29.0455 
 466   0.0000       1.071442        29.1554 
 467   0.0000       1.077366        29.3166 
 468   0.0000       1.084732        29.5171 
 469   0.0000       1.090610        29.6770 
 470   0.0000       1.100992        29.9595 
 471   0.0000       1.108059        30.1518 
 472   0.0000       1.111027        30.2326 
 473   0.0000       1.115815        30.3629 
 474   0.0000       1.119566        30.4649 
 475   0.0000       1.123270        30.5657 
 476   0.0000       1.125170        30.6174 
 477   0.0000       1.131443        30.7881 
 478   0.0000       1.136040        30.9132 
 479   0.0000       1.136678        30.9306 
 480   0.0000       1.142999        31.1026 
 481   0.0000       1.150055        31.2946 
 482   0.0000       1.156438        31.4683 
 483   0.0000       1.162966        31.6459 
 484   0.0000       1.171456        31.8770 
 485   0.0000       1.175410        31.9845 
 486   0.0000       1.185655        32.2633 
 487   0.0000       1.189250        32.3611 
 488   0.0000       1.197091        32.5745 
 489   0.0000       1.201955        32.7068 
 490   0.0000       1.217195        33.1216 
 491   0.0000       1.223852        33.3027 
 492   0.0000       1.230361        33.4798 
 493   0.0000       1.231707        33.5164 
 494   0.0000       1.237670        33.6787 
 495   0.0000       1.239734        33.7349 
 496   0.0000       1.246704        33.9245 
 497   0.0000       1.250676        34.0326 
 498   0.0000       1.256037        34.1785 
 499   0.0000       1.260196        34.2917 
 500   0.0000       1.264395        34.4059 
 501   0.0000       1.268469        34.5168 
 502   0.0000       1.272013        34.6132 
 503   0.0000       1.280757        34.8512 
[...]
 188:   1492.64  0.000095  (-0.000653  0.009628  0.001269)
 189:   1493.57  0.000079  (-0.008524  0.001086 -0.002271)
 190:   1493.98  0.000085  ( 0.008825 -0.002653  0.000017)
 191:   1495.52  0.001493  ( 0.029138  0.004775 -0.024920)
 192:   1510.28  0.000104  ( 0.001064  0.004788  0.008916)
 193:   1510.91  0.000440  (-0.002765  0.018948  0.008542)
 194:   1511.67  0.000226  (-0.002395  0.011268  0.009671)
 195:   1515.93  0.002441  ( 0.043618  0.012516 -0.019549)
 196:   1530.53  0.003012  (-0.007405 -0.045304  0.030073)
 197:   1533.61  0.004760  ( 0.004103 -0.056257  0.039726)
 198:   1541.14  0.005113  ( 0.065726 -0.013008 -0.024986)
 199:   1545.35  0.011316  (-0.105299  0.006854 -0.013444)
 200:   1589.75  0.003213  ( 0.050612  0.019519  0.016433)
 201:   1607.72  0.003379  ( 0.017389  0.003364 -0.055370)
 202:   1623.17  0.003570  ( 0.015440 -0.043162 -0.038323)
 203:   1637.43  0.009703  ( 0.043450 -0.079680  0.038289)
 204:   1650.56  0.006577  ( 0.071831 -0.000627 -0.037645)
 205:   1667.73  0.020243  (-0.139536  0.001963 -0.027739)
 206:   1675.86  0.021128  (-0.144334 -0.002297  0.017035)
 207:   1679.53  0.009229  ( 0.065570  0.060738 -0.035215)
 208:   2592.18  0.019152  ( 0.130609  0.032364 -0.032342)
 209:   2901.83  0.000584  ( 0.011324 -0.004726 -0.020813)
 210:   2926.90  0.001200  (-0.030578  0.016262 -0.000472)
 211:   2955.27  0.000501  (-0.003292 -0.004355  0.021698)
 212:   2966.85  0.001211  ( 0.027212 -0.001824 -0.021615)
 213:   2980.71  0.001699  (-0.026031 -0.001321  0.031932)
 214:   2993.12  0.001212  (-0.026486 -0.022152 -0.004399)
 215:   2999.93  0.000223  ( 0.002620  0.014520 -0.002339)
 216:   3009.03  0.000686  (-0.015684 -0.020603  0.003918)
 217:   3013.28  0.000295  (-0.015898  0.006483  0.000816)
 218:   3014.30  0.000781  (-0.003337 -0.010064  0.025854)
 219:   3016.76  0.000275  ( 0.007333  0.014289 -0.004085)
 220:   3019.75  0.000919  (-0.022453 -0.015962 -0.012648)
 221:   3023.74  0.000300  ( 0.002222  0.016022  0.006170)
 222:   3024.69  0.000298  (-0.011582  0.008980 -0.009147)
 223:   3025.09  0.000282  ( 0.007997 -0.014312  0.003659)
 224:   3032.01  0.000748  (-0.006133  0.009704 -0.024820)
 225:   3073.37  0.002739  ( 0.047396  0.003563 -0.021908)
 226:   3075.94  0.004865  ( 0.067085 -0.006004 -0.018131)
 227:   3076.55  0.007516  (-0.081826 -0.001118  0.028618)
 228:   3080.98  0.000151  (-0.011010 -0.005088  0.001841)
 229:   3081.06  0.000295  ( 0.014132 -0.002257 -0.009482)
 230:   3085.65  0.000138  ( 0.010464  0.001445 -0.005132)
 231:   3104.54  0.000099  ( 0.008073 -0.003880  0.004341)
 232:   3110.71  0.000401  (-0.005040 -0.013119  0.014282)
 233:   3111.45  0.000310  ( 0.014353  0.010133  0.001252)
 234:   3112.29  0.000405  ( 0.017102  0.005436  0.009135)
 235:   3123.26  0.000433  ( 0.019891  0.006101  0.000220)
 236:   3123.80  0.000470  (-0.016350  0.008431  0.011464)
 237:   3124.25  0.000466  ( 0.018251 -0.001297 -0.011467)
 238:   3141.48  0.000185  (-0.013247  0.002735 -0.001487)
 239:   3156.65  0.000154  ( 0.005544  0.000315 -0.011108)
 240:   3162.94  0.000105  ( 0.009148  0.003859  0.002589)
 241:   3193.06  0.000063  (-0.006934 -0.001740 -0.003401)
 242:   3198.18  0.000046  ( 0.002788 -0.004283 -0.004480)
 243:   3199.30  0.000008  (-0.002720  0.000661 -0.000471)
 244:   3205.57  0.000006  (-0.002332  0.000223 -0.000771)
 245:   3210.21  0.000136  (-0.004325 -0.010097  0.003862)
 246:   3219.55  0.000143  (-0.011371  0.001354 -0.003483)
 247:   3493.44  0.000362  ( 0.004135  0.018065 -0.004276)
 248:   3718.15  0.005073  (-0.010100 -0.065143 -0.026965)

* The epsilon (eps) is given for a Dirac delta lineshape.
** The dipole moment derivative (T) already includes vibrational overlap.

The first frequency considered to be a vibration is 9
The total number of vibrations considered is 240


--------------------------
THERMOCHEMISTRY AT 298.15K
--------------------------

Temperature         ... 298.15 K
Pressure            ... 1.00 atm
Total Mass          ... 579.69 AMU

Throughout the following assumptions are being made:
  (1) The electronic state is orbitally nondegenerate
  (2) There are no thermally accessible electronically excited states
  (3) Hindered rotations indicated by low frequency modes are not
      treated as such but are treated as vibrations and this may
      cause some error
  (4) All equations used are the standard statistical mechanics
      equations for an ideal gas
  (5) All vibrations are strictly harmonic

freq.      16.50  E(vib)   ...       0.57 
freq.      19.67  E(vib)   ...       0.56 
freq.      25.34  E(vib)   ...       0.56 
freq.      33.00  E(vib)   ...       0.55 
freq.      34.79  E(vib)   ...       0.54 
freq.      41.62  E(vib)   ...       0.53 
freq.      44.51  E(vib)   ...       0.53 
freq.      54.62  E(vib)   ...       0.52 
freq.      57.41  E(vib)   ...       0.51 
freq.      65.84  E(vib)   ...       0.50 
freq.      79.10  E(vib)   ...       0.49 
freq.      82.05  E(vib)   ...       0.48 
freq.      89.26  E(vib)   ...       0.47 
freq.      99.82  E(vib)   ...       0.46 
freq.     106.90  E(vib)   ...       0.45 
freq.     112.90  E(vib)   ...       0.45 
freq.     125.58  E(vib)   ...       0.43 
freq.     132.43  E(vib)   ...       0.42 
freq.     154.17  E(vib)   ...       0.40 
freq.     165.67  E(vib)   ...       0.39 
freq.     182.80  E(vib)   ...       0.37 
freq.     189.65  E(vib)   ...       0.36 
freq.     191.20  E(vib)   ...       0.36 
freq.     196.09  E(vib)   ...       0.36 
freq.     207.96  E(vib)   ...       0.34 
freq.     219.05  E(vib)   ...       0.33 
freq.     226.31  E(vib)   ...       0.33 
freq.     230.61  E(vib)   ...       0.32 
freq.     235.85  E(vib)   ...       0.32 
freq.     249.70  E(vib)   ...       0.31 
freq.     256.29  E(vib)   ...       0.30 
freq.     265.65  E(vib)   ...       0.29 
freq.     282.95  E(vib)   ...       0.28 
freq.     299.73  E(vib)   ...       0.26 
freq.     316.41  E(vib)   ...       0.25 
freq.     321.91  E(vib)   ...       0.25 
freq.     328.98  E(vib)   ...       0.24 
freq.     344.40  E(vib)   ...       0.23 
freq.     351.35  E(vib)   ...       0.23 
freq.     360.20  E(vib)   ...       0.22 
freq.     366.54  E(vib)   ...       0.22 
freq.     370.74  E(vib)   ...       0.21 
freq.     393.86  E(vib)   ...       0.20 
freq.     406.80  E(vib)   ...       0.19 
freq.     412.00  E(vib)   ...       0.19 
freq.     427.11  E(vib)   ...       0.18 
freq.     428.97  E(vib)   ...       0.18 
freq.     437.23  E(vib)   ...       0.17 
freq.     448.61  E(vib)   ...       0.17 
freq.     453.60  E(vib)   ...       0.16 
freq.     457.04  E(vib)   ...       0.16 
freq.     463.06  E(vib)   ...       0.16 
freq.     473.94  E(vib)   ...       0.15 
freq.     476.52  E(vib)   ...       0.15 
freq.     489.14  E(vib)   ...       0.15 
freq.     492.34  E(vib)   ...       0.14 
freq.     518.20  E(vib)   ...       0.13 
freq.     528.22  E(vib)   ...       0.13 
freq.     535.35  E(vib)   ...       0.13 
freq.     556.30  E(vib)   ...       0.12 
freq.     567.23  E(vib)   ...       0.11 
freq.     574.56  E(vib)   ...       0.11 
freq.     579.76  E(vib)   ...       0.11 
freq.     591.07  E(vib)   ...       0.10 
freq.     610.83  E(vib)   ...       0.10 
freq.     635.76  E(vib)   ...       0.09 
freq.     641.75  E(vib)   ...       0.09 
freq.     643.97  E(vib)   ...       0.09 
freq.     655.14  E(vib)   ...       0.08 
freq.     655.68  E(vib)   ...       0.08 
freq.     693.98  E(vib)   ...       0.07 
freq.     719.63  E(vib)   ...       0.07 
freq.     724.98  E(vib)   ...       0.06 
freq.     734.45  E(vib)   ...       0.06 
freq.     740.51  E(vib)   ...       0.06 
freq.     749.73  E(vib)   ...       0.06 
freq.     750.36  E(vib)   ...       0.06 
freq.     780.72  E(vib)   ...       0.05 
freq.     782.01  E(vib)   ...       0.05 
freq.     784.12  E(vib)   ...       0.05 
freq.     803.58  E(vib)   ...       0.05 
freq.     816.02  E(vib)   ...       0.05 
freq.     817.47  E(vib)   ...       0.05 
freq.     820.10  E(vib)   ...       0.05 
freq.     820.72  E(vib)   ...       0.05 
freq.     827.37  E(vib)   ...       0.04 
freq.     829.22  E(vib)   ...       0.04 
freq.     845.42  E(vib)   ...       0.04 
freq.     853.73  E(vib)   ...       0.04 
freq.     855.65  E(vib)   ...       0.04 
freq.     861.20  E(vib)   ...       0.04 
freq.     876.13  E(vib)   ...       0.04 
freq.     880.04  E(vib)   ...       0.04 
freq.     897.20  E(vib)   ...       0.03 
freq.     900.46  E(vib)   ...       0.03 
freq.     905.83  E(vib)   ...       0.03 
freq.     911.05  E(vib)   ...       0.03 
freq.     919.43  E(vib)   ...       0.03 
freq.     925.98  E(vib)   ...       0.03 
freq.     943.33  E(vib)   ...       0.03 
freq.     952.15  E(vib)   ...       0.03 
freq.     969.53  E(vib)   ...       0.03 
freq.     978.12  E(vib)   ...       0.03 
freq.     981.69  E(vib)   ...       0.02 
freq.     985.07  E(vib)   ...       0.02 
freq.     987.75  E(vib)   ...       0.02 
freq.     997.75  E(vib)   ...       0.02 
freq.    1015.66  E(vib)   ...       0.02 
freq.    1050.66  E(vib)   ...       0.02 
freq.    1054.75  E(vib)   ...       0.02 
freq.    1056.48  E(vib)   ...       0.02 
freq.    1057.35  E(vib)   ...       0.02 
freq.    1061.88  E(vib)   ...       0.02 
freq.    1080.82  E(vib)   ...       0.02 
freq.    1095.53  E(vib)   ...       0.02 
freq.    1110.00  E(vib)   ...       0.02 
freq.    1110.30  E(vib)   ...       0.02 
freq.    1110.78  E(vib)   ...       0.01 
freq.    1111.57  E(vib)   ...       0.01 
freq.    1120.75  E(vib)   ...       0.01 
freq.    1131.36  E(vib)   ...       0.01 
freq.    1151.70  E(vib)   ...       0.01 
freq.    1153.08  E(vib)   ...       0.01 
freq.    1166.20  E(vib)   ...       0.01 
freq.    1175.44  E(vib)   ...       0.01 
freq.    1178.89  E(vib)   ...       0.01 
freq.    1180.79  E(vib)   ...       0.01 
freq.    1181.81  E(vib)   ...       0.01 
freq.    1185.86  E(vib)   ...       0.01 
freq.    1194.36  E(vib)   ...       0.01 
freq.    1203.73  E(vib)   ...       0.01 
freq.    1205.95  E(vib)   ...       0.01 
freq.    1209.42  E(vib)   ...       0.01 
freq.    1221.32  E(vib)   ...       0.01 
freq.    1230.95  E(vib)   ...       0.01 
freq.    1241.66  E(vib)   ...       0.01 
freq.    1256.84  E(vib)   ...       0.01 
freq.    1258.98  E(vib)   ...       0.01 
freq.    1259.87  E(vib)   ...       0.01 
freq.    1272.96  E(vib)   ...       0.01 
freq.    1274.06  E(vib)   ...       0.01 
freq.    1299.85  E(vib)   ...       0.01 
freq.    1305.77  E(vib)   ...       0.01 
freq.    1308.93  E(vib)   ...       0.01 
freq.    1313.62  E(vib)   ...       0.01 
freq.    1315.40  E(vib)   ...       0.01 
freq.    1321.14  E(vib)   ...       0.01 
freq.    1326.96  E(vib)   ...       0.01 
freq.    1328.95  E(vib)   ...       0.01 
freq.    1338.21  E(vib)   ...       0.01 
freq.    1341.71  E(vib)   ...       0.01 
freq.    1347.42  E(vib)   ...       0.01 
freq.    1352.33  E(vib)   ...       0.01 
freq.    1357.08  E(vib)   ...       0.01 
freq.    1370.64  E(vib)   ...       0.01 
freq.    1372.53  E(vib)   ...       0.01 
freq.    1378.95  E(vib)   ...       0.01 
freq.    1383.37  E(vib)   ...       0.00 
freq.    1388.22  E(vib)   ...       0.00 
freq.    1390.97  E(vib)   ...       0.00 
freq.    1392.33  E(vib)   ...       0.00 
freq.    1393.29  E(vib)   ...       0.00 
freq.    1394.38  E(vib)   ...       0.00 
freq.    1408.90  E(vib)   ...       0.00 
freq.    1409.40  E(vib)   ...       0.00 
freq.    1409.67  E(vib)   ...       0.00 
freq.    1418.22  E(vib)   ...       0.00 
freq.    1422.31  E(vib)   ...       0.00 
freq.    1434.97  E(vib)   ...       0.00 
freq.    1443.02  E(vib)   ...       0.00 
freq.    1456.10  E(vib)   ...       0.00 
freq.    1464.86  E(vib)   ...       0.00 
freq.    1468.45  E(vib)   ...       0.00 
freq.    1476.45  E(vib)   ...       0.00 
freq.    1476.53  E(vib)   ...       0.00 
freq.    1476.68  E(vib)   ...       0.00 
freq.    1477.68  E(vib)   ...       0.00 
freq.    1486.18  E(vib)   ...       0.00 
freq.    1492.43  E(vib)   ...       0.00 
freq.    1492.64  E(vib)   ...       0.00 
freq.    1493.57  E(vib)   ...       0.00 
freq.    1493.98  E(vib)   ...       0.00 
freq.    1495.52  E(vib)   ...       0.00 
freq.    1510.28  E(vib)   ...       0.00 
freq.    1510.91  E(vib)   ...       0.00 
freq.    1511.67  E(vib)   ...       0.00 
freq.    1515.93  E(vib)   ...       0.00 
freq.    1530.53  E(vib)   ...       0.00 
freq.    1533.61  E(vib)   ...       0.00 
freq.    1541.14  E(vib)   ...       0.00 
freq.    1545.35  E(vib)   ...       0.00 
freq.    1589.75  E(vib)   ...       0.00 
freq.    1607.72  E(vib)   ...       0.00 
freq.    1623.17  E(vib)   ...       0.00 
freq.    1637.43  E(vib)   ...       0.00 
freq.    1650.56  E(vib)   ...       0.00 
freq.    1667.73  E(vib)   ...       0.00 
freq.    1675.86  E(vib)   ...       0.00 
freq.    1679.53  E(vib)   ...       0.00 
freq.    2592.18  E(vib)   ...       0.00 
freq.    2901.83  E(vib)   ...       0.00 
freq.    2926.90  E(vib)   ...       0.00 
freq.    2955.27  E(vib)   ...       0.00 
freq.    2966.85  E(vib)   ...       0.00 
freq.    2980.71  E(vib)   ...       0.00 
freq.    2993.12  E(vib)   ...       0.00 
freq.    2999.93  E(vib)   ...       0.00 
freq.    3009.03  E(vib)   ...       0.00 
freq.    3013.28  E(vib)   ...       0.00 
freq.    3014.30  E(vib)   ...       0.00 
freq.    3016.76  E(vib)   ...       0.00 
freq.    3019.75  E(vib)   ...       0.00 
freq.    3023.74  E(vib)   ...       0.00 
freq.    3024.69  E(vib)   ...       0.00 
freq.    3025.09  E(vib)   ...       0.00 
freq.    3032.01  E(vib)   ...       0.00 
freq.    3073.37  E(vib)   ...       0.00 
freq.    3075.94  E(vib)   ...       0.00 
freq.    3076.55  E(vib)   ...       0.00 
freq.    3080.98  E(vib)   ...       0.00 
freq.    3081.06  E(vib)   ...       0.00 
freq.    3085.65  E(vib)   ...       0.00 
freq.    3104.54  E(vib)   ...       0.00 
freq.    3110.71  E(vib)   ...       0.00 
freq.    3111.45  E(vib)   ...       0.00 
freq.    3112.29  E(vib)   ...       0.00 
freq.    3123.26  E(vib)   ...       0.00 
freq.    3123.80  E(vib)   ...       0.00 
freq.    3124.25  E(vib)   ...       0.00 
freq.    3141.48  E(vib)   ...       0.00 
freq.    3156.65  E(vib)   ...       0.00 
freq.    3162.94  E(vib)   ...       0.00 
freq.    3193.06  E(vib)   ...       0.00 
freq.    3198.18  E(vib)   ...       0.00 
freq.    3199.30  E(vib)   ...       0.00 
freq.    3205.57  E(vib)   ...       0.00 
freq.    3210.21  E(vib)   ...       0.00 
freq.    3219.55  E(vib)   ...       0.00 
freq.    3493.44  E(vib)   ...       0.00 
freq.    3718.15  E(vib)   ...       0.00 

------------
INNER ENERGY
------------

The inner energy is: U= E(el) + E(ZPE) + E(vib) + E(rot) + E(trans)
    E(el)   - is the total energy from the electronic structure calculation
              = E(kin-el) + E(nuc-el) + E(el-el) + E(nuc-nuc)
    E(ZPE)  - the the zero temperature vibrational energy from the frequency calculation
    E(vib)  - the the finite temperature correction to E(ZPE) due to population
              of excited vibrational states
    E(rot)  - is the rotational thermal energy
    E(trans)- is the translational thermal energy

Summary of contributions to the inner energy U:
Electronic energy                ...  -1934.47717415 Eh
Zero point energy                ...      0.69259132 Eh     434.61 kcal/mol
Thermal vibrational correction   ...      0.03544688 Eh      22.24 kcal/mol
Thermal rotational correction    ...      0.00141627 Eh       0.89 kcal/mol
Thermal translational correction ...      0.00141627 Eh       0.89 kcal/mol
-----------------------------------------------------------------------
Total thermal energy                  -1933.74630341 Eh


Summary of corrections to the electronic energy:
(perhaps to be used in another calculation)
Total thermal correction                  0.03827942 Eh      24.02 kcal/mol
Non-thermal (ZPE) correction              0.69259132 Eh     434.61 kcal/mol
-----------------------------------------------------------------------
Total correction                          0.73087074 Eh     458.63 kcal/mol


--------
ENTHALPY
--------

The enthalpy is H = U + kB*T
                kB is Boltzmann's constant
Total free energy                 ...  -1933.74630341 Eh 
Thermal Enthalpy correction       ...      0.00094421 Eh       0.59 kcal/mol
-----------------------------------------------------------------------
Total Enthalpy                    ...  -1933.74535920 Eh


Note: Only C1 symmetry has been detected, increase convergence thresholds 
      if your molecule has a higher symmetry. Symmetry factor of 1.0 is   
      used for the rotational entropy correction. 
 

Note: Rotational entropy computed according to Herzberg 
Infrared and Raman Spectra, Chapter V,1, Van Nostrand Reinhold, 1945 
Point Group:  C1, Symmetry Number:   1  
Rotational constants in cm-1:     0.003412     0.001053     0.000864 

Vibrational entropy computed according to the QRRHO of S. Grimme
Chem.Eur.J. 2012 18 9955


-------
ENTROPY
-------

The entropy contributions are T*S = T*(S(el)+S(vib)+S(rot)+S(trans))
     S(el)   - electronic entropy
     S(vib)  - vibrational entropy
     S(rot)  - rotational entropy
     S(trans)- translational entropy
The entropies will be listed as multiplied by the temperature to get
units of energy

Electronic entropy                ...      0.00000000 Eh      0.00 kcal/mol
Vibrational entropy               ...      0.06293298 Eh     39.49 kcal/mol
Rotational entropy                ...      0.01875941 Eh     11.77 kcal/mol
Translational entropy             ...      0.02136010 Eh     13.40 kcal/mol
-----------------------------------------------------------------------
Final entropy term                ...      0.10305250 Eh     64.67 kcal/mol

In case the symmetry of your molecule has not been determined correctly
or in case you have a reason to use a different symmetry number we print 
out the resulting rotational entropy values for sn=1,12 :
 --------------------------------------------------------
|  sn= 1 | S(rot)=       0.01875941 Eh     11.77 kcal/mol|
|  sn= 2 | S(rot)=       0.01810496 Eh     11.36 kcal/mol|
|  sn= 3 | S(rot)=       0.01772212 Eh     11.12 kcal/mol|
|  sn= 4 | S(rot)=       0.01745050 Eh     10.95 kcal/mol|
|  sn= 5 | S(rot)=       0.01723981 Eh     10.82 kcal/mol|
|  sn= 6 | S(rot)=       0.01706767 Eh     10.71 kcal/mol|
|  sn= 7 | S(rot)=       0.01692212 Eh     10.62 kcal/mol|
|  sn= 8 | S(rot)=       0.01679604 Eh     10.54 kcal/mol|
|  sn= 9 | S(rot)=       0.01668484 Eh     10.47 kcal/mol|
|  sn=10 | S(rot)=       0.01658536 Eh     10.41 kcal/mol|
|  sn=11 | S(rot)=       0.01649537 Eh     10.35 kcal/mol|
|  sn=12 | S(rot)=       0.01641321 Eh     10.30 kcal/mol|
 --------------------------------------------------------


-------------------
GIBBS FREE ENERGY
-------------------

The Gibbs free energy is G = H - T*S

Total enthalpy                    ...  -1933.74535920 Eh 
Total entropy correction          ...     -0.10305250 Eh    -64.67 kcal/mol
-----------------------------------------------------------------------
Final Gibbs free energy         ...  -1933.84841169 Eh

For completeness - the Gibbs free energy minus the electronic energy
G-E(el)                           ...      0.62876245 Eh    394.55 kcal/mol


Timings for individual modules:

Sum of individual times         ...     1691.375 sec (=  28.190 min)
GTO integral calculation        ...        1.686 sec (=   0.028 min)   0.1 %
SCF iterations                  ...       10.272 sec (=   0.171 min)   0.6 %
Analytical frequency calculation...     1679.417 sec (=  27.990 min)  99.3 %
                             ****ORCA TERMINATED NORMALLY****
TOTAL RUN TIME: 0 days 0 hours 28 minutes 13 seconds 334 msec
