
                                 *****************
                                 * O   R   C   A *
                                 *****************

                                            #,                                       
                                            ###                                      
                                            ####                                     
                                            #####                                    
                                            ######                                   
                                           ########,                                 
                                     ,,################,,,,,                         
                               ,,#################################,,                 
                          ,,##########################################,,             
                       ,#########################################, ''#####,          
                    ,#############################################,,   '####,        
                  ,##################################################,,,,####,       
                ,###########''''           ''''###############################       
              ,#####''   ,,,,##########,,,,          '''####'''          '####       
            ,##' ,,,,###########################,,,                        '##       
           ' ,,###''''                  '''############,,,                           
         ,,##''                                '''############,,,,        ,,,,,,###''
      ,#''                                            '''#######################'''  
     '                                                          ''''####''''         
             ,#######,   #######,   ,#######,      ##                                
            ,#'     '#,  ##    ##  ,#'     '#,    #''#        ######   ,####,        
            ##       ##  ##   ,#'  ##            #'  '#       #        #'  '#        
            ##       ##  #######   ##           ,######,      #####,   #    #        
            '#,     ,#'  ##    ##  '#,     ,#' ,#      #,         ##   #,  ,#        
             '#######'   ##     ##  '#######'  #'      '#     #####' # '####'        



                  #######################################################
                  #                        -***-                        #
                  #          Department of theory and spectroscopy      #
                  #    Directorship and core code : Frank Neese         #
                  #        Max Planck Institute fuer Kohlenforschung    #
                  #                Kaiser Wilhelm Platz 1               #
                  #                 D-45470 Muelheim/Ruhr               #
                  #                      Germany                        #
                  #                                                     #
                  #                  All rights reserved                #
                  #                        -***-                        #
                  #######################################################


                         Program Version 5.0.2 -  RELEASE  -


 With contributions from (in alphabetic order):
   Daniel Aravena         : Magnetic Suceptibility
   Michael Atanasov       : Ab Initio Ligand Field Theory (pilot matlab implementation)
   Alexander A. Auer      : GIAO ZORA, VPT2 properties, NMR spectrum
   Ute Becker             : Parallelization
   Giovanni Bistoni       : ED, misc. LED, open-shell LED, HFLD
   Martin Brehm           : Molecular dynamics
   Dmytro Bykov           : SCF Hessian
   Vijay G. Chilkuri      : MRCI spin determinant printing, contributions to CSF-ICE
   Dipayan Datta          : RHF DLPNO-CCSD density
   Achintya Kumar Dutta   : EOM-CC, STEOM-CC
   Dmitry Ganyushin       : Spin-Orbit,Spin-Spin,Magnetic field MRCI
   Miquel Garcia          : C-PCM and meta-GGA Hessian, CC/C-PCM, Gaussian charge scheme
   Yang Guo               : DLPNO-NEVPT2, F12-NEVPT2, CIM, IAO-localization
   Andreas Hansen         : Spin unrestricted coupled pair/coupled cluster methods
   Benjamin Helmich-Paris : MC-RPA, TRAH-SCF, COSX integrals
   Lee Huntington         : MR-EOM, pCC
   Robert Izsak           : Overlap fitted RIJCOSX, COSX-SCS-MP3, EOM
   Marcus Kettner         : VPT2
   Christian Kollmar      : KDIIS, OOCD, Brueckner-CCSD(T), CCSD density, CASPT2, CASPT2-K
   Simone Kossmann        : Meta GGA functionals, TD-DFT gradient, OOMP2, MP2 Hessian
   Martin Krupicka        : Initial AUTO-CI
   Lucas Lang             : DCDCAS
   Marvin Lechner         : AUTO-CI (C++ implementation), FIC-MRCC
   Dagmar Lenk            : GEPOL surface, SMD
   Dimitrios Liakos       : Extrapolation schemes; Compound Job, initial MDCI parallelization
   Dimitrios Manganas     : Further ROCIS development; embedding schemes
   Dimitrios Pantazis     : SARC Basis sets
   Anastasios Papadopoulos: AUTO-CI, single reference methods and gradients
   Taras Petrenko         : DFT Hessian,TD-DFT gradient, ASA, ECA, R-Raman, ABS, FL, XAS/XES, NRVS
   Peter Pinski           : DLPNO-MP2, DLPNO-MP2 Gradient
   Christoph Reimann      : Effective Core Potentials
   Marius Retegan         : Local ZFS, SOC
   Christoph Riplinger    : Optimizer, TS searches, QM/MM, DLPNO-CCSD(T), (RO)-DLPNO pert. Triples
   Tobias Risthaus        : Range-separated hybrids, TD-DFT gradient, RPA, STAB
   Michael Roemelt        : Original ROCIS implementation
   Masaaki Saitow         : Open-shell DLPNO-CCSD energy and density
   Barbara Sandhoefer     : DKH picture change effects
   Avijit Sen             : IP-ROCIS
   Kantharuban Sivalingam : CASSCF convergence, NEVPT2, FIC-MRCI
   Bernardo de Souza      : ESD, SOC TD-DFT
   Georgi Stoychev        : AutoAux, RI-MP2 NMR, DLPNO-MP2 response
   Willem Van den Heuvel  : Paramagnetic NMR
   Boris Wezisla          : Elementary symmetry handling
   Frank Wennmohs         : Technical directorship


 We gratefully acknowledge several colleagues who have allowed us to
 interface, adapt or use parts of their codes:
   Stefan Grimme, W. Hujo, H. Kruse, P. Pracht,  : VdW corrections, initial TS optimization,
                  C. Bannwarth, S. Ehlert          DFT functionals, gCP, sTDA/sTD-DF
   Ed Valeev, F. Pavosevic, A. Kumar             : LibInt (2-el integral package), F12 methods
   Garnet Chan, S. Sharma, J. Yang, R. Olivares  : DMRG
   Ulf Ekstrom                                   : XCFun DFT Library
   Mihaly Kallay                                 : mrcc  (arbitrary order and MRCC methods)
   Jiri Pittner, Ondrej Demel                    : Mk-CCSD
   Frank Weinhold                                : gennbo (NPA and NBO analysis)
   Christopher J. Cramer and Donald G. Truhlar   : smd solvation model
   Lars Goerigk                                  : TD-DFT with DH, B97 family of functionals
   V. Asgeirsson, H. Jonsson                     : NEB implementation
   FAccTs GmbH                                   : IRC, NEB, NEB-TS, DLPNO-Multilevel, CI-OPT
                                                   MM, QMMM, 2- and 3-layer-ONIOM, Crystal-QMMM,
                                                   LR-CPCM, SF, NACMEs, symmetry and pop. for TD-DFT,
                                                   nearIR, NL-DFT gradient (VV10), updates on ESD,
                                                   ML-optimized integration grids
   S Lehtola, MJT Oliveira, MAL Marques          : LibXC Library
   Liviu Ungur et al                             : ANISO software


 Your calculation uses the libint2 library for the computation of 2-el integrals
 For citations please refer to: http://libint.valeyev.net

 Your ORCA version has been built with support for libXC version: 5.1.0
 For citations please refer to: https://tddft.org/programs/libxc/

 This ORCA versions uses:
   CBLAS   interface :  Fast vector & matrix operations
   LAPACKE interface :  Fast linear algebra routines
   SCALAPACK package :  Parallel linear algebra routines
   Shared memory     :  Shared parallel matrices
   BLAS/LAPACK       :  OpenBLAS 0.3.15  USE64BITINT DYNAMIC_ARCH NO_AFFINITY SkylakeX SINGLE_THREADED
        Core in use  :  SkylakeX
   Copyright (c) 2011-2014, The OpenBLAS Project


Your calculation utilizes the geometrical counterpoise correction gCP
Please cite in your paper:
H.Kruse, S. Grimme J.Chem.Phys., 136, (2012), 154101 
   

Your calculation utilizes the atom-pairwise dispersion correction
based on tight binding partial charges (D4)
Cite in your paper:
E.Caldeweyher, C.Bannwarth, S.Grimme, J.Chem.Phys., (2017), 147, 034112.
E.Caldeweyher, S.Ehlert, A.Hansen, H.Neugebauer, S.Grimme, J.Chem.Phys., (2018), in progress.
   

================================================================================

----- Orbital basis set information -----
Your calculation utilizes the basis: def2-mTZVPP
   Stefan Grimme, Andreas Hansen, Sebastian Ehlert, and Jan-Michael Mewes 
   J. Chem. Phys. 154, 000000 (2021). DOI: 10.1063/5.0040021

----- AuxJ basis set information -----
Your calculation utilizes the basis: def2-mTZVPP/J
   Stefan Grimme, Andreas Hansen, Sebastian Ehlert, and Jan-Michael Mewes 
   J. Chem. Phys. 154, 000000 (2021). DOI: 10.1063/5.0040021

================================================================================
                                        WARNINGS
                       Please study these warnings very carefully!
================================================================================

Using LibXC functional ID 497 : Re-regularized SCAN exchange by Furness et al
[ 1]  J. W. Furness, A. D. Kaplan, J. Ning, J. P. Perdew, and J. Sun, J. Phys. Chem. Lett. 11, 8208 (2020)
[ 2]  J. W. Furness, A. D. Kaplan, J. Ning, J. P. Perdew, and J. Sun, J. Phys. Chem. Lett. 11, 9248 (2020)
Using LibXC functional ID 498 : Re-regularized SCAN correlation by Furness et al
[ 1]  J. W. Furness, A. D. Kaplan, J. Ning, J. P. Perdew, and J. Sun, J. Phys. Chem. Lett. 11, 8208 (2020)
[ 2]  J. W. Furness, A. D. Kaplan, J. Ning, J. P. Perdew, and J. Sun, J. Phys. Chem. Lett. 11, 9248 (2020)
Using LibXC functional ID 497 : Re-regularized SCAN exchange by Furness et al
[ 1]  J. W. Furness, A. D. Kaplan, J. Ning, J. P. Perdew, and J. Sun, J. Phys. Chem. Lett. 11, 8208 (2020)
[ 2]  J. W. Furness, A. D. Kaplan, J. Ning, J. P. Perdew, and J. Sun, J. Phys. Chem. Lett. 11, 9248 (2020)
Using LibXC functional ID 498 : Re-regularized SCAN correlation by Furness et al
[ 1]  J. W. Furness, A. D. Kaplan, J. Ning, J. P. Perdew, and J. Sun, J. Phys. Chem. Lett. 11, 8208 (2020)
[ 2]  J. W. Furness, A. D. Kaplan, J. Ning, J. P. Perdew, and J. Sun, J. Phys. Chem. Lett. 11, 9248 (2020)

INFO   : the flag for use of the SHARK integral package has been found!

================================================================================
                                       INPUT FILE
================================================================================
NAME = orca.inp
|  1> !r2scan-3c tightscf freq
|  2>         !moread
|  3>             %moinp "/beegfs/si93yaq/projekte/01_daza/02_4ethoxy/20_prot_addition/01_tsopt_irc_endopt_no_iterative/redund/qm_calcs/irc_000.062.orca.gbw" 
|  4> 
|  5>         %pal nprocs 24 end
|  6>         %maxcore 6000
|  7> 
|  8>         
|  9>         
| 10> 
| 11>         *xyz 0 1
| 12>         C -3.58890861 4.18289445 1.99441503
| 13> C -4.70831779 3.61965440 1.36871193
| 14> C -2.33487073 3.99453122 1.44126527
| 15> C -2.14261898 3.25406906 0.27243039
| 16> C -3.27621221 2.71705755 -0.34982406
| 17> C -4.55480413 2.89218507 0.18820632
| 18> O -5.89717623 3.83295375 1.99912524
| 19> C -7.10987894 3.39430952 1.37065312
| 20> O -3.08460326 2.04069684 -1.51738156
| 21> C -0.76703528 2.97985923 -0.26234324
| 22> N 0.04314510 2.11384324 0.62779094
| 23> N -0.17999569 -0.45705753 -0.65755207
| 24> C 1.32350023 1.79474331 -0.02280021
| 25> C 1.93132409 0.45029500 0.40171674
| 26> C 1.17731798 -0.76834584 -0.19450059
| 27> C -0.66544765 1.00955629 1.26829865
| 28> C -1.18575043 -0.09731391 0.35515562
| 29> N 3.29835227 0.39390633 -0.08359343
| 30> C 4.25090772 0.27001141 0.77441292
| 31> C 5.63543167 0.22984196 0.39259880
| 32> C 6.63333378 0.09475782 1.36714157
| 33> C 6.03445695 0.33426876 -0.97079952
| 34> C 7.97635739 0.05934019 1.04704137
| 35> C 7.38282555 0.29974300 -1.30215829
| 36> C 8.34911051 0.16699244 -0.30613853
| 37> O 5.13450769 0.46755943 -1.95236047
| 38> O 9.63014273 0.17254205 -0.75043509
| 39> C 10.70475131 -0.03460312 0.18159847
| 40> H -3.73007354 4.75415014 2.90551346
| 41> H -1.46242629 4.41355350 1.93755102
| 42> H -5.40157829 2.47068693 -0.34204669
| 43> C -7.55119374 4.33152155 0.25967998
| 44> H -7.84508107 3.39003948 2.18119212
| 45> H -7.00231534 2.35897671 1.01867988
| 46> H -3.76344862 1.36801355 -1.68706129
| 47> H -0.21205352 3.92358139 -0.37266965
| 48> H 2.05944572 2.57881918 0.20921874
| 49> H 1.23670451 1.79751748 -1.12862344
| 50> H 1.92173760 0.39259029 1.50182996
| 51> H 1.13281223 -1.59812254 0.52000217
| 52> H 1.73494559 -1.10600622 -1.07612171
| 53> H -1.52328655 1.42376049 1.80887675
| 54> H -0.01312815 0.57941094 2.03635401
| 55> H -2.06603785 0.23444463 -0.20298325
| 56> H -1.45815786 -0.99465500 0.92325538
| 57> H 4.03557537 0.19497608 1.85363575
| 58> H 6.33391750 0.01502852 2.41001131
| 59> H 8.71151580 -0.04933344 1.83361218
| 60> H 7.68541260 0.38363182 -2.34010476
| 61> H 4.23284064 0.47817426 -1.52040313
| 62> C 10.87782481 -1.50090663 0.53470864
| 63> H 10.55946144 0.59237073 1.07102861
| 64> H 11.58748731 0.33968104 -0.34521762
| 65> O -0.97748529 -0.54553261 -2.81197741
| 66> C -0.78470850 -1.45279064 -1.87852797
| 67> C -1.99159078 -2.21125812 -1.39636432
| 68> C -1.89768661 -3.39466918 -0.67074451
| 69> C -3.28152702 -1.72625428 -1.72276226
| 70> C -4.41361301 -2.41144617 -1.28901077
| 71> C -3.01988501 -4.09072457 -0.22735509
| 72> C -4.28752306 -3.57914510 -0.53873530
| 73> O -3.41879447 -0.60347816 -2.44882191
| 74> O -5.47020231 -4.13834152 -0.14766276
| 75> C -5.45539000 -5.41720431 0.49868116
| 76> H 0.08032361 -2.13985214 -2.01205406
| 77> H -0.90985373 -3.79492082 -0.44276619
| 78> H -5.40034617 -2.04078792 -1.54634662
| 79> H -2.89424949 -5.01081877 0.32927452
| 80> H -2.42276737 -0.39223823 -2.74688033
| 81> C -5.24896578 -6.55452715 -0.48719743
| 82> H -6.44163979 -5.49242823 0.96745150
| 83> H -4.70666205 -5.42974417 1.30263420
| 84> H -8.50150216 3.98699141 -0.16202566
| 85> H -6.81521674 4.37972116 -0.54759090
| 86> H -7.69342116 5.34203995 0.65347992
| 87> H 11.74050379 -1.62295640 1.19830191
| 88> H 11.05255422 -2.08905428 -0.37071024
| 89> H 9.99561697 -1.90396967 1.03986490
| 90> H -6.03565805 -6.54143638 -1.24706666
| 91> H -5.28889587 -7.51557459 0.03695946
| 92> H -4.28301737 -6.47750456 -0.99395156
| 93> H -0.85497689 2.54781907 -1.27347784
| 94> H -0.11865171 0.33035248 -1.31270357
| 95>         *
| 96>                                   ****END OF INPUT****
================================================================================

                       ****************************
                       * Single Point Calculation *
                       ****************************

---------------------------------
CARTESIAN COORDINATES (ANGSTROEM)
---------------------------------
  C     -3.588909    4.182894    1.994415
  C     -4.708318    3.619654    1.368712
  C     -2.334871    3.994531    1.441265
  C     -2.142619    3.254069    0.272430
  C     -3.276212    2.717058   -0.349824
  C     -4.554804    2.892185    0.188206
  O     -5.897176    3.832954    1.999125
  C     -7.109879    3.394310    1.370653
  O     -3.084603    2.040697   -1.517382
  C     -0.767035    2.979859   -0.262343
  N      0.043145    2.113843    0.627791
  N     -0.179996   -0.457058   -0.657552
  C      1.323500    1.794743   -0.022800
  C      1.931324    0.450295    0.401717
  C      1.177318   -0.768346   -0.194501
  C     -0.665448    1.009556    1.268299
  C     -1.185750   -0.097314    0.355156
  N      3.298352    0.393906   -0.083593
  C      4.250908    0.270011    0.774413
  C      5.635432    0.229842    0.392599
  C      6.633334    0.094758    1.367142
  C      6.034457    0.334269   -0.970800
  C      7.976357    0.059340    1.047041
  C      7.382826    0.299743   -1.302158
  C      8.349111    0.166992   -0.306139
  O      5.134508    0.467559   -1.952360
  O      9.630143    0.172542   -0.750435
  C     10.704751   -0.034603    0.181598
  H     -3.730074    4.754150    2.905513
  H     -1.462426    4.413553    1.937551
  H     -5.401578    2.470687   -0.342047
  C     -7.551194    4.331522    0.259680
  H     -7.845081    3.390039    2.181192
  H     -7.002315    2.358977    1.018680
  H     -3.763449    1.368014   -1.687061
  H     -0.212054    3.923581   -0.372670
  H      2.059446    2.578819    0.209219
  H      1.236705    1.797517   -1.128623
  H      1.921738    0.392590    1.501830
  H      1.132812   -1.598123    0.520002
  H      1.734946   -1.106006   -1.076122
  H     -1.523287    1.423760    1.808877
  H     -0.013128    0.579411    2.036354
  H     -2.066038    0.234445   -0.202983
  H     -1.458158   -0.994655    0.923255
  H      4.035575    0.194976    1.853636
  H      6.333918    0.015029    2.410011
  H      8.711516   -0.049333    1.833612
  H      7.685413    0.383632   -2.340105
  H      4.232841    0.478174   -1.520403
  C     10.877825   -1.500907    0.534709
  H     10.559461    0.592371    1.071029
  H     11.587487    0.339681   -0.345218
  O     -0.977485   -0.545533   -2.811977
  C     -0.784709   -1.452791   -1.878528
  C     -1.991591   -2.211258   -1.396364
  C     -1.897687   -3.394669   -0.670745
  C     -3.281527   -1.726254   -1.722762
  C     -4.413613   -2.411446   -1.289011
  C     -3.019885   -4.090725   -0.227355
  C     -4.287523   -3.579145   -0.538735
  O     -3.418794   -0.603478   -2.448822
  O     -5.470202   -4.138342   -0.147663
  C     -5.455390   -5.417204    0.498681
  H      0.080324   -2.139852   -2.012054
  H     -0.909854   -3.794921   -0.442766
  H     -5.400346   -2.040788   -1.546347
  H     -2.894249   -5.010819    0.329275
  H     -2.422767   -0.392238   -2.746880
  C     -5.248966   -6.554527   -0.487197
  H     -6.441640   -5.492428    0.967452
  H     -4.706662   -5.429744    1.302634
  H     -8.501502    3.986991   -0.162026
  H     -6.815217    4.379721   -0.547591
  H     -7.693421    5.342040    0.653480
  H     11.740504   -1.622956    1.198302
  H     11.052554   -2.089054   -0.370710
  H      9.995617   -1.903970    1.039865
  H     -6.035658   -6.541436   -1.247067
  H     -5.288896   -7.515575    0.036959
  H     -4.283017   -6.477505   -0.993952
  H     -0.854977    2.547819   -1.273478
  H     -0.118652    0.330352   -1.312704

----------------------------
CARTESIAN COORDINATES (A.U.)
----------------------------
  NO LB      ZA    FRAG     MASS         X           Y           Z
   0 C     6.0000    0    12.011   -6.782054    7.904525    3.768898
   1 C     6.0000    0    12.011   -8.897431    6.840156    2.586491
   2 C     6.0000    0    12.011   -4.412266    7.548570    2.723597
   3 C     6.0000    0    12.011   -4.048963    6.149299    0.514819
   4 C     6.0000    0    12.011   -6.191144    5.134495   -0.661072
   5 C     6.0000    0    12.011   -8.607332    5.465438    0.355658
   6 O     8.0000    0    15.999  -11.144048    7.243233    3.777799
   7 C     6.0000    0    12.011  -13.435724    6.414315    2.590159
   8 O     8.0000    0    15.999   -5.829055    3.856358   -2.867436
   9 C     6.0000    0    12.011   -1.449487    5.631118   -0.495757
  10 N     7.0000    0    14.007    0.081532    3.994585    1.186353
  11 N     7.0000    0    14.007   -0.340143   -0.863714   -1.242593
  12 C     6.0000    0    12.011    2.501053    3.391573   -0.043086
  13 C     6.0000    0    12.011    3.649674    0.850934    0.759135
  14 C     6.0000    0    12.011    2.224809   -1.451963   -0.367553
  15 C     6.0000    0    12.011   -1.257514    1.907785    2.396737
  16 C     6.0000    0    12.011   -2.240744   -0.183897    0.671147
  17 N     7.0000    0    14.007    6.232982    0.744375   -0.157969
  18 C     6.0000    0    12.011    8.033051    0.510248    1.463428
  19 C     6.0000    0    12.011   10.649423    0.434338    0.741904
  20 C     6.0000    0    12.011   12.535184    0.179066    2.583523
  21 C     6.0000    0    12.011   11.403471    0.631676   -1.834545
  22 C     6.0000    0    12.011   15.073131    0.112137    1.978621
  23 C     6.0000    0    12.011   13.951518    0.566432   -2.460723
  24 C     6.0000    0    12.011   15.777532    0.315570   -0.578518
  25 O     8.0000    0    15.999    9.702813    0.883559   -3.689427
  26 O     8.0000    0    15.999   18.198332    0.326057   -1.418117
  27 C     6.0000    0    12.011   20.229048   -0.065390    0.343171
  28 H     1.0000    0     1.008   -7.048817    8.984042    5.490625
  29 H     1.0000    0     1.008   -2.763585    8.340407    3.661441
  30 H     1.0000    0     1.008  -10.207504    4.668922   -0.646375
  31 C     6.0000    0    12.011  -14.269688    8.185389    0.490724
  32 H     1.0000    0     1.008  -14.825055    6.406246    4.121856
  33 H     1.0000    0     1.008  -13.232458    4.457820    1.925026
  34 H     1.0000    0     1.008   -7.111887    2.585171   -3.188084
  35 H     1.0000    0     1.008   -0.400723    7.414494   -0.704244
  36 H     1.0000    0     1.008    3.891788    4.873262    0.395366
  37 H     1.0000    0     1.008    2.337033    3.396816   -2.132789
  38 H     1.0000    0     1.008    3.631558    0.741888    2.838047
  39 H     1.0000    0     1.008    2.140705   -3.020014    0.982662
  40 H     1.0000    0     1.008    3.278572   -2.090049   -2.033575
  41 H     1.0000    0     1.008   -2.878594    2.690517    3.418282
  42 H     1.0000    0     1.008   -0.024809    1.094928    3.848151
  43 H     1.0000    0     1.008   -3.904246    0.443036   -0.383583
  44 H     1.0000    0     1.008   -2.755519   -1.879626    1.744700
  45 H     1.0000    0     1.008    7.626132    0.368451    3.502864
  46 H     1.0000    0     1.008   11.969369    0.028400    4.554261
  47 H     1.0000    0     1.008   16.462379   -0.093227    3.465025
  48 H     1.0000    0     1.008   14.523325    0.724959   -4.422157
  49 H     1.0000    0     1.008    7.998910    0.903618   -2.873146
  50 C     6.0000    0    12.011   20.556110   -2.836302    1.010453
  51 H     1.0000    0     1.008   19.954490    1.119418    2.023951
  52 H     1.0000    0     1.008   21.897178    0.641904   -0.652367
  53 O     8.0000    0    15.999   -1.847179   -1.030907   -5.313867
  54 C     6.0000    0    12.011   -1.482884   -2.745376   -3.549903
  55 C     6.0000    0    12.011   -3.763561   -4.178672   -2.638746
  56 C     6.0000    0    12.011   -3.586108   -6.414995   -1.267523
  57 C     6.0000    0    12.011   -6.201187   -3.262148   -3.255549
  58 C     6.0000    0    12.011   -8.340520   -4.556973   -2.435877
  59 C     6.0000    0    12.011   -5.706756   -7.730349   -0.429639
  60 C     6.0000    0    12.011   -8.102244   -6.763604   -1.018062
  61 O     8.0000    0    15.999   -6.460585   -1.140408   -4.627603
  62 O     8.0000    0    15.999  -10.337184   -7.820332   -0.279042
  63 C     6.0000    0    12.011  -10.309193  -10.237033    0.942371
  64 H     1.0000    0     1.008    0.151790   -4.043735   -3.802231
  65 H     1.0000    0     1.008   -1.719374   -7.171361   -0.836707
  66 H     1.0000    0     1.008  -10.205175   -3.856530   -2.922172
  67 H     1.0000    0     1.008   -5.469339   -9.469075    0.622239
  68 H     1.0000    0     1.008   -4.578367   -0.741223   -5.190852
  69 C     6.0000    0    12.011   -9.919108  -12.386261   -0.920670
  70 H     1.0000    0     1.008  -12.172935  -10.379185    1.828218
  71 H     1.0000    0     1.008   -8.894302  -10.260729    2.461622
  72 H     1.0000    0     1.008  -16.065511    7.534322   -0.306184
  73 H     1.0000    0     1.008  -12.878893    8.276474   -1.034797
  74 H     1.0000    0     1.008  -14.538459   10.094993    1.234898
  75 H     1.0000    0     1.008   22.186337   -3.066943    2.264462
  76 H     1.0000    0     1.008   20.886301   -3.947740   -0.700541
  77 H     1.0000    0     1.008   18.888979   -3.597981    1.965060
  78 H     1.0000    0     1.008  -11.405741  -12.361523   -2.356614
  79 H     1.0000    0     1.008   -9.994565  -14.202378    0.069843
  80 H     1.0000    0     1.008   -8.093730  -12.240710   -1.878296
  81 H     1.0000    0     1.008   -1.615672    4.814680   -2.406524
  82 H     1.0000    0     1.008   -0.224219    0.624276   -2.480650

--------------------------------
INTERNAL COORDINATES (ANGSTROEM)
--------------------------------
 C      0   0   0     0.000000000000     0.00000000     0.00000000
 C      1   0   0     1.400650076051     0.00000000     0.00000000
 C      1   2   0     1.383497874187   119.41047906     0.00000000
 C      3   1   2     1.396932325660   122.10344886   359.86492577
 C      4   3   1     1.400219830426   117.62649103     1.12777109
 C      2   1   3     1.395124211366   119.98310218   359.10850035
 O      2   1   3     1.362461722213   115.32285077   178.66367579
 C      7   2   1     1.434584897791   119.14687945   174.58915139
 O      5   4   3     1.362853005851   117.20835821   177.50320310
 C      4   3   1     1.501134365045   121.40044960   184.26835642
 N     10   4   3     1.482806393794   113.17336224    65.72959384
 N     11  10   4     2.882954948435   102.17455562   100.76248181
 C     11  10   4     1.471190969488   109.67713779   174.85914735
 C     13  11  10     1.535319427313   114.34313362   208.35961357
 C     12  11  10     1.467520863171    88.67595323   147.42609840
 C     11  10   4     1.460069683221   116.09738973    39.61920262
 C     12  11  10     1.471915396532    61.84803477   270.23678540
 N     14  13  11     1.451713362935   108.32332708   191.93881613
 C     18  14  13     1.287977768895   118.52015267   119.53053690
 C     19  18  14     1.436767961457   122.57077855   181.16344976
 C     20  19  18     1.401352902227   120.27119633   179.94300453
 C     20  19  18     1.424423079572   121.48366663     0.39191034
 C     21  20  19     1.381097738602   122.25975772   180.38158725
 C     22  20  19     1.388916320023   119.89971154   179.60531871
 C     24  22  20     1.394053333776   120.31965865   359.82240688
 O     22  20  19     1.338333654904   121.39460244   359.66899152
 O     25  24  22     1.355903307790   114.85772500   181.25194965
 C     27  25  24     1.437490618623   119.55329096   183.53660090
 H      1   2   3     1.084601747172   118.88417516   180.22649032
 H      3   1   2     1.087675741054   119.48390717   181.28798931
 H      6   2   1     1.084368671016   122.04131913   182.12771293
 C      8   7   2     1.519008380384   112.16951046   282.28521929
 H      8   7   2     1.094309771371   104.16048346   162.85173511
 H      8   7   2     1.098803493434   110.22334125    47.89326912
 H      9   5   4     0.970631259651   113.28943599   153.16475605
 H     10   4   3     1.100358208017   109.95208288   306.66508472
 H     13  11  10     1.100101598638   109.53270135    87.62882158
 H     13  11  10     1.109227753456   111.85273463   331.49624833
 H     14  13  11     1.101667296041   108.57424895   311.22121732
 H     15  12  11     1.095912554766   109.19378433   114.74885144
 H     15  12  11     1.096457424110   106.37925223   231.25770469
 H     16  11  10     1.095297849834   108.09492484   304.96068569
 H     16  11  10     1.095652676824   108.39122092   190.96738756
 H     17  12  11     1.093841244824   105.84021160   100.05535825
 H     17  12  11     1.096432477188   109.03985301   216.26961844
 H     19  18  14     1.103050424277   120.92680344     0.78311842
 H     21  20  19     1.087926543759   118.53600170     0.40948358
 H     23  21  20     1.082109737871   119.65322476   180.18186583
 H     24  22  20     1.084402661162   119.82282450   180.26248104
 H     26  22  20     0.999851632619   106.89454902     0.34280709
 C     28  27  25     1.518119630332   112.03786444    78.73397767
 H     28  27  25     1.097857608640   110.12414143   313.07787576
 H     28  27  25     1.094004876957   103.98507916   198.10427632
 O     12  11  10     2.298992398318   118.61842315    14.53501273
 C     54  12  11     1.315905726410    46.44605444   194.01125685
 C     55  54  12     1.504765610112   117.21395868   118.99850232
 C     56  55  54     1.391331678191   122.79933295   163.99090382
 C     56  55  54     1.416227327556   118.95056088   345.79953659
 C     58  56  55     1.392568479448   120.01092613   179.94167837
 C     57  56  55     1.392988346211   122.45540985   179.97075288
 C     59  58  56     1.393675983684   120.42332512   359.68153917
 O     58  56  55     1.344109810927   120.23727691   359.81106521
 O     61  59  58     1.365418828076   114.76896846   178.50352920
 C     63  61  59     1.432993336724   119.05990227   173.12423995
 H     55  54  12     1.112727852093   117.03105436   253.83780414
 H     57  56  55     1.089949213735   118.85516744   359.76806732
 H     59  58  56     1.085012261236   119.82492096   180.40254010
 H     60  57  56     1.082679150759   119.65721598   179.64752688
 H     62  58  56     1.060910511633   102.83863010     8.03340143
 C     64  63  61     1.519233621010   112.13582874   282.84351001
 H     64  63  61     1.094574309071   104.19285295   163.41118155
 H     64  63  61     1.098677059797   110.32106694    48.35542055
 H     32   8   7     1.095272914528   109.85209347   182.57218972
 H     32   8   7     1.093467704429   111.81467484    62.33061197
 H     32   8   7     1.093825611550   110.14902642   301.96526770
 H     51  28  27     1.095201897771   109.77761045   176.68187172
 H     51  28  27     1.093723627421   110.18518687    57.35577949
 H     51  28  27     1.093587369253   111.80588040   296.93431722
 H     70  64  63     1.093826925358   110.12833514   302.01839105
 H     70  64  63     1.095420941626   109.95727045   182.55094566
 H     70  64  63     1.093521174200   111.59343918    62.22041930
 H     10   4   3     1.103080054184   108.96808261   190.27380872
 H     12  11  10     1.026158416465    66.15530239    37.05719860

---------------------------
INTERNAL COORDINATES (A.U.)
---------------------------
 C      0   0   0     0.000000000000     0.00000000     0.00000000
 C      1   0   0     2.646845053193     0.00000000     0.00000000
 C      1   2   0     2.614432089075   119.41047906     0.00000000
 C      3   1   2     2.639819523120   122.10344886   359.86492577
 C      4   3   1     2.646032006791   117.62649103     1.12777109
 C      2   1   3     2.636402682284   119.98310218   359.10850035
 O      2   1   3     2.574679522933   115.32285077   178.66367579
 C      7   2   1     2.710972572685   119.14687945   174.58915139
 O      5   4   3     2.575418941850   117.20835821   177.50320310
 C      4   3   1     2.836732840152   121.40044960   184.26835642
 N     10   4   3     2.802097993898   113.17336224    65.72959384
 N     11  10   4     5.447995308975   102.17455562   100.76248181
 C     11  10   4     2.780148023030   109.67713779   174.85914735
 C     13  11  10     2.901333245710   114.34313362   208.35961357
 C     12  11  10     2.773212527209    88.67595323   147.42609840
 C     11  10   4     2.759131837730   116.09738973    39.61920262
 C     12  11  10     2.781516991748    61.84803477   270.23678540
 N     14  13  11     2.743340680901   108.32332708   191.93881613
 C     18  14  13     2.433925249790   118.52015267   119.53053690
 C     19  18  14     2.715097965145   122.57077855   181.16344976
 C     20  19  18     2.648173202186   120.27119633   179.94300453
 C     20  19  18     2.691769519227   121.48366663     0.39191034
 C     21  20  19     2.609896490136   122.25975772   180.38158725
 C     22  20  19     2.624671467777   119.89971154   179.60531871
 C     24  22  20     2.634379016917   120.31965865   359.82240688
 O     22  20  19     2.529084083578   121.39460244   359.66899152
 O     25  24  22     2.562285915802   114.85772500   181.25194965
 C     27  25  24     2.716463589279   119.55329096   183.53660090
 H      1   2   3     2.049600266527   118.88417516   180.22649032
 H      3   1   2     2.055409273101   119.48390717   181.28798931
 H      6   2   1     2.049159816425   122.04131913   182.12771293
 C      8   7   2     2.870509834057   112.16951046   282.28521929
 H      8   7   2     2.067945773566   104.16048346   162.85173511
 H      8   7   2     2.076437677587   110.22334125    47.89326912
 H      9   5   4     1.834227257763   113.28943599   153.16475605
 H     10   4   3     2.079375662365   109.95208288   306.66508472
 H     13  11  10     2.078890740915   109.53270135    87.62882158
 H     13  11  10     2.096136674177   111.85273463   331.49624833
 H     14  13  11     2.081849480214   108.57424895   311.22121732
 H     15  12  11     2.070974595234   109.19378433   114.74885144
 H     15  12  11     2.072004249073   106.37925223   231.25770469
 H     16  11  10     2.069812971259   108.09492484   304.96068569
 H     16  11  10     2.070483497095   108.39122092   190.96738756
 H     17  12  11     2.067060386705   105.84021160   100.05535825
 H     17  12  11     2.071957106223   109.03985301   216.26961844
 H     19  18  14     2.084463213789   120.92680344     0.78311842
 H     21  20  19     2.055883221528   118.53600170     0.40948358
 H     23  21  20     2.044891051425   119.65322476   180.18186583
 H     24  22  20     2.049224048491   119.82282450   180.26248104
 H     26  22  20     1.889445760205   106.89454902     0.34280709
 C     28  27  25     2.868830339856   112.03786444    78.73397767
 H     28  27  25     2.074650214371   110.12414143   313.07787576
 H     28  27  25     2.067369606623   103.98507916   198.10427632
 O     12  11  10     4.344466016788   118.61842315    14.53501273
 C     54  12  11     2.486701440974    46.44605444   194.01125685
 C     55  54  12     2.843594898855   117.21395868   118.99850232
 C     56  55  54     2.629235833230   122.79933295   163.99090382
 C     56  55  54     2.676281792456   118.95056088   345.79953659
 C     58  56  55     2.631573048889   120.01092613   179.94167837
 C     57  56  55     2.632366482082   122.45540985   179.97075288
 C     59  58  56     2.633665928586   120.42332512   359.68153917
 O     58  56  55     2.539999436568   120.23727691   359.81106521
 O     61  59  58     2.580267643163   114.76896846   178.50352920
 C     63  61  59     2.707964958142   119.05990227   173.12423995
 H     55  54  12     2.102750902043   117.03105436   253.83780414
 H     57  56  55     2.059705513842   118.85516744   359.76806732
 H     59  58  56     2.050376025682   119.82492096   180.40254010
 H     60  57  56     2.045967085841   119.65721598   179.64752688
 H     62  58  56     2.004830319585   102.83863010     8.03340143
 C     64  63  61     2.870935477155   112.13582874   282.84351001
 H     64  63  61     2.068445677371   104.19285295   163.41118155
 H     64  63  61     2.076198752639   110.32106694    48.35542055
 H     32   8   7     2.069765850360   109.85209347   182.57218972
 H     32   8   7     2.066354497658   111.81467484    62.33061197
 H     32   8   7     2.067030844098   110.14902642   301.96526770
 H     51  28  27     2.069631648137   109.77761045   176.68187172
 H     51  28  27     2.066838122025   110.18518687    57.35577949
 H     51  28  27     2.066580631403   111.80588040   296.93431722
 H     70  64  63     2.067033326835   110.12833514   302.01839105
 H     70  64  63     2.070045581035   109.95727045   182.55094566
 H     70  64  63     2.066455540882   111.59343918    62.22041930
 H     10   4   3     2.084519206199   108.96808261   190.27380872
 H     12  11  10     1.939158377138    66.15530239    37.05719860

---------------------
BASIS SET INFORMATION
---------------------
There are 4 groups of distinct atoms

 Group   1 Type C   : 11s6p1d contracted to 5s3p1d pattern {62111/411/1}
 Group   2 Type O   : 11s6p2d contracted to 5s3p2d pattern {62111/411/11}
 Group   3 Type N   : 11s6p2d contracted to 5s3p2d pattern {62111/411/11}
 Group   4 Type H   : 4s1p contracted to 2s1p pattern {31/1}

Atom   0C    basis set group =>   1
Atom   1C    basis set group =>   1
Atom   2C    basis set group =>   1
Atom   3C    basis set group =>   1
Atom   4C    basis set group =>   1
Atom   5C    basis set group =>   1
Atom   6O    basis set group =>   2
Atom   7C    basis set group =>   1
Atom   8O    basis set group =>   2
Atom   9C    basis set group =>   1
Atom  10N    basis set group =>   3
Atom  11N    basis set group =>   3
Atom  12C    basis set group =>   1
Atom  13C    basis set group =>   1
Atom  14C    basis set group =>   1
Atom  15C    basis set group =>   1
Atom  16C    basis set group =>   1
Atom  17N    basis set group =>   3
Atom  18C    basis set group =>   1
Atom  19C    basis set group =>   1
Atom  20C    basis set group =>   1
Atom  21C    basis set group =>   1
Atom  22C    basis set group =>   1
Atom  23C    basis set group =>   1
Atom  24C    basis set group =>   1
Atom  25O    basis set group =>   2
Atom  26O    basis set group =>   2
Atom  27C    basis set group =>   1
Atom  28H    basis set group =>   4
Atom  29H    basis set group =>   4
Atom  30H    basis set group =>   4
Atom  31C    basis set group =>   1
Atom  32H    basis set group =>   4
Atom  33H    basis set group =>   4
Atom  34H    basis set group =>   4
Atom  35H    basis set group =>   4
Atom  36H    basis set group =>   4
Atom  37H    basis set group =>   4
Atom  38H    basis set group =>   4
Atom  39H    basis set group =>   4
Atom  40H    basis set group =>   4
Atom  41H    basis set group =>   4
Atom  42H    basis set group =>   4
Atom  43H    basis set group =>   4
Atom  44H    basis set group =>   4
Atom  45H    basis set group =>   4
Atom  46H    basis set group =>   4
Atom  47H    basis set group =>   4
Atom  48H    basis set group =>   4
Atom  49H    basis set group =>   4
Atom  50C    basis set group =>   1
Atom  51H    basis set group =>   4
Atom  52H    basis set group =>   4
Atom  53O    basis set group =>   2
Atom  54C    basis set group =>   1
Atom  55C    basis set group =>   1
Atom  56C    basis set group =>   1
Atom  57C    basis set group =>   1
Atom  58C    basis set group =>   1
Atom  59C    basis set group =>   1
Atom  60C    basis set group =>   1
Atom  61O    basis set group =>   2
Atom  62O    basis set group =>   2
Atom  63C    basis set group =>   1
Atom  64H    basis set group =>   4
Atom  65H    basis set group =>   4
Atom  66H    basis set group =>   4
Atom  67H    basis set group =>   4
Atom  68H    basis set group =>   4
Atom  69C    basis set group =>   1
Atom  70H    basis set group =>   4
Atom  71H    basis set group =>   4
Atom  72H    basis set group =>   4
Atom  73H    basis set group =>   4
Atom  74H    basis set group =>   4
Atom  75H    basis set group =>   4
Atom  76H    basis set group =>   4
Atom  77H    basis set group =>   4
Atom  78H    basis set group =>   4
Atom  79H    basis set group =>   4
Atom  80H    basis set group =>   4
Atom  81H    basis set group =>   4
Atom  82H    basis set group =>   4
---------------------------------
AUXILIARY/J BASIS SET INFORMATION
---------------------------------
There are 4 groups of distinct atoms

 Group   1 Type C   : 8s3p3d contracted to 6s3p3d pattern {311111/111/111}
 Group   2 Type O   : 8s3p3d contracted to 6s3p3d pattern {311111/111/111}
 Group   3 Type N   : 8s3p3d contracted to 6s3p3d pattern {311111/111/111}
 Group   4 Type H   : 5s2p1d contracted to 3s1p1d pattern {311/2/1}

Atom   0C    basis set group =>   1
Atom   1C    basis set group =>   1
Atom   2C    basis set group =>   1
Atom   3C    basis set group =>   1
Atom   4C    basis set group =>   1
Atom   5C    basis set group =>   1
Atom   6O    basis set group =>   2
Atom   7C    basis set group =>   1
Atom   8O    basis set group =>   2
Atom   9C    basis set group =>   1
Atom  10N    basis set group =>   3
Atom  11N    basis set group =>   3
Atom  12C    basis set group =>   1
Atom  13C    basis set group =>   1
Atom  14C    basis set group =>   1
Atom  15C    basis set group =>   1
Atom  16C    basis set group =>   1
Atom  17N    basis set group =>   3
Atom  18C    basis set group =>   1
Atom  19C    basis set group =>   1
Atom  20C    basis set group =>   1
Atom  21C    basis set group =>   1
Atom  22C    basis set group =>   1
Atom  23C    basis set group =>   1
Atom  24C    basis set group =>   1
Atom  25O    basis set group =>   2
Atom  26O    basis set group =>   2
Atom  27C    basis set group =>   1
Atom  28H    basis set group =>   4
Atom  29H    basis set group =>   4
Atom  30H    basis set group =>   4
Atom  31C    basis set group =>   1
Atom  32H    basis set group =>   4
Atom  33H    basis set group =>   4
Atom  34H    basis set group =>   4
Atom  35H    basis set group =>   4
Atom  36H    basis set group =>   4
Atom  37H    basis set group =>   4
Atom  38H    basis set group =>   4
Atom  39H    basis set group =>   4
Atom  40H    basis set group =>   4
Atom  41H    basis set group =>   4
Atom  42H    basis set group =>   4
Atom  43H    basis set group =>   4
Atom  44H    basis set group =>   4
Atom  45H    basis set group =>   4
Atom  46H    basis set group =>   4
Atom  47H    basis set group =>   4
Atom  48H    basis set group =>   4
Atom  49H    basis set group =>   4
Atom  50C    basis set group =>   1
Atom  51H    basis set group =>   4
Atom  52H    basis set group =>   4
Atom  53O    basis set group =>   2
Atom  54C    basis set group =>   1
Atom  55C    basis set group =>   1
Atom  56C    basis set group =>   1
Atom  57C    basis set group =>   1
Atom  58C    basis set group =>   1
Atom  59C    basis set group =>   1
Atom  60C    basis set group =>   1
Atom  61O    basis set group =>   2
Atom  62O    basis set group =>   2
Atom  63C    basis set group =>   1
Atom  64H    basis set group =>   4
Atom  65H    basis set group =>   4
Atom  66H    basis set group =>   4
Atom  67H    basis set group =>   4
Atom  68H    basis set group =>   4
Atom  69C    basis set group =>   1
Atom  70H    basis set group =>   4
Atom  71H    basis set group =>   4
Atom  72H    basis set group =>   4
Atom  73H    basis set group =>   4
Atom  74H    basis set group =>   4
Atom  75H    basis set group =>   4
Atom  76H    basis set group =>   4
Atom  77H    basis set group =>   4
Atom  78H    basis set group =>   4
Atom  79H    basis set group =>   4
Atom  80H    basis set group =>   4
Atom  81H    basis set group =>   4
Atom  82H    basis set group =>   4


           ************************************************************
           *        Program running with 24 parallel MPI-processes    *
           *              working on a common directory               *
           ************************************************************
------------------------------------------------------------------------------
                           ORCA GTO INTEGRAL CALCULATION
                           -- RI-GTO INTEGRALS CHOSEN --
------------------------------------------------------------------------------
------------------------------------------------------------------------------
                   ___                                                        
                  /   \      - P O W E R E D   B Y -                         
                 /     \                                                     
                 |  |  |   _    _      __       _____    __    __             
                 |  |  |  | |  | |    /  \     |  _  \  |  |  /  |          
                  \  \/   | |  | |   /    \    | | | |  |  | /  /          
                 / \  \   | |__| |  /  /\  \   | |_| |  |  |/  /          
                |  |  |   |  __  | /  /__\  \  |    /   |      \           
                |  |  |   | |  | | |   __   |  |    \   |  |\   \          
                \     /   | |  | | |  |  |  |  | |\  \  |  | \   \       
                 \___/    |_|  |_| |__|  |__|  |_| \__\ |__|  \__/        
                                                                              
                      - O R C A' S   B I G   F R I E N D -                    
                                      &                                       
                       - I N T E G R A L  F E E D E R -                       
                                                                              
 v1 FN, 2020, v2 2021                                                         
------------------------------------------------------------------------------


Reading SHARK input file orca.SHARKINP.tmp ... ok
----------------------
SHARK INTEGRAL PACKAGE
----------------------

Number of atoms                             ...     83
Number of basis functions                   ...   1053
Number of shells                            ...    511
Maximum angular momentum                    ...      2
Integral batch strategy                     ... SHARK/LIBINT Hybrid
RI-J (if used) integral strategy            ... SPLIT-RIJ (Revised 2003 algorithm where possible)
Printlevel                                  ...      1
Contraction scheme used                     ... SEGMENTED contraction
Coulomb Range Separation                    ... NOT USED
Exchange Range Separation                   ... NOT USED
Finite Nucleus Model                        ... NOT USED
Auxiliary Coulomb fitting basis             ... AVAILABLE
   # of basis functions in Aux-J            ...   1711
   # of shells in Aux-J                     ...    709
   Maximum angular momentum in Aux-J        ...      2
Auxiliary J/K fitting basis                 ... NOT available
Auxiliary Correlation fitting basis         ... NOT available
Auxiliary 'external' fitting basis          ... NOT available
Integral threshold                          ...     2.500000e-11
Primitive cut-off                           ...     2.500000e-12
Primitive pair pre-selection threshold      ...     2.500000e-12

Calculating pre-screening integrals         ... done (  0.1 sec) Dimension = 511
Organizing shell pair data                  ... done (  0.4 sec)
Shell pair information
Total number of shell pairs                 ...    130816
Shell pairs after pre-screening             ...     59134
Total number of primitive shell pairs       ...    472953
Primitive shell pairs kept                  ...    127249
          la=0 lb=0:  18218 shell pairs
          la=1 lb=0:  22750 shell pairs
          la=1 lb=1:   7145 shell pairs
          la=2 lb=0:   6400 shell pairs
          la=2 lb=1:   4030 shell pairs
          la=2 lb=2:    591 shell pairs

Calculating one electron integrals          ... done (  0.1 sec)
Calculating RI/J V-Matrix + Cholesky decomp.... done (  0.1 sec)
Calculating Nuclear repulsion               ... done (  0.0 sec) ENN=   4867.725193835559 Eh

SHARK setup successfully completed in   1.1 seconds

Maximum memory used throughout the entire GTOINT-calculation: 88.3 MB


           ************************************************************
           *        Program running with 24 parallel MPI-processes    *
           *              working on a common directory               *
           ************************************************************
-------------------------------------------------------------------------------
                                 ORCA SCF
-------------------------------------------------------------------------------

------------
SCF SETTINGS
------------
Hamiltonian:
 Density Functional     Method          .... DFT(GTOs)
  Functional kind                       .... Exchange
  Functional name                       .... Re-regularized SCAN exchange by Furness et al
  Functional family                     .... MGGA
  Functional refs                              
    [ 0] J. W. Furness, A. D. Kaplan, J. Ning, J. P. Perdew, and J. Sun, J. Phys. Chem. Lett. 11, 8208 (2020)
    [ 1] J. W. Furness, A. D. Kaplan, J. Ning, J. P. Perdew, and J. Sun, J. Phys. Chem. Lett. 11, 9248 (2020)
  Functional external parameters         .... 8
 Parameter  0 :         c1 parameter
 Parameter  1 :         c2 parameter
 Parameter  2 :          d parameter
 Parameter  3 :         k1 parameter
 Parameter  4 :       taur parameter
 Parameter  5 :     alphar parameter
 Parameter  6 :        eta parameter
 Parameter  7 :        dp2 parameter
  Functional kind                       .... Correlation
  Functional name                       .... Re-regularized SCAN correlation by Furness et al
  Functional family                     .... MGGA
  Functional refs                              
    [ 0] J. W. Furness, A. D. Kaplan, J. Ning, J. P. Perdew, and J. Sun, J. Phys. Chem. Lett. 11, 8208 (2020)
    [ 1] J. W. Furness, A. D. Kaplan, J. Ning, J. P. Perdew, and J. Sun, J. Phys. Chem. Lett. 11, 9248 (2020)
  Functional external parameters         .... 0
 Gradients option       PostSCFGGA      .... off
   Density functional embedding theory  .... OFF
 RI-approximation to the Coulomb term is turned on
   Number of AuxJ basis functions       .... 1711


General Settings:
 Integral files         IntName         .... orca
 Hartree-Fock type      HFTyp           .... RHF
 Total Charge           Charge          ....    0
 Multiplicity           Mult            ....    1
 Number of Electrons    NEL             ....  310
 Basis Dimension        Dim             .... 1053
 Nuclear Repulsion      ENuc            ....   4867.7251938356 Eh

Convergence Acceleration:
 DIIS                   CNVDIIS         .... on
   Start iteration      DIISMaxIt       ....    12
   Startup error        DIISStart       ....  0.200000
   # of expansion vecs  DIISMaxEq       ....     5
   Bias factor          DIISBfac        ....   1.050
   Max. coefficient     DIISMaxC        ....  10.000
 Trust-Rad. Augm. Hess. CNVTRAH         .... auto
   Auto Start mean grad. ratio tolernc. ....  1.125000
   Auto Start start iteration           ....     1
   Auto Start num. interpolation iter.  ....    10
   Max. Number of Micro iterations      ....    16
   Max. Number of Macro iterations      .... Maxiter - #DIIS iter
   Number of Davidson start vectors     ....     2
   Converg. threshold I  (grad. norm)   ....   1.000e-05
   Converg. threshold II (energy diff.) ....   1.000e-08
   Grad. Scal. Fac. for Micro threshold ....   0.100
   Minimum threshold for Micro iter.    ....   0.010
   NR start threshold (gradient norm)   ....   0.001
   Initial trust radius                 ....   0.400
   Minimum AH scaling param. (alpha)    ....   1.000
   Maximum AH scaling param. (alpha)    .... 1000.000
   Orbital update algorithm             .... Taylor
   White noise on init. David. guess    .... on
   Maximum white noise                  ....   0.010
   Quad. conv. algorithm                .... NR
   COSX micro iterations for RIJONX calc.... off
 SOSCF                  CNVSOSCF        .... on
   Start iteration      SOSCFMaxIt      ....   150
   Startup grad/error   SOSCFStart      ....  0.003300
 Level Shifting         CNVShift        .... on
   Level shift para.    LevelShift      ....    0.2500
   Turn off err/grad.   ShiftErr        ....    0.0010
 Zerner damping         CNVZerner       .... off
 Static damping         CNVDamp         .... on
   Fraction old density DampFac         ....    0.7000
   Max. Damping (<1)    DampMax         ....    0.9800
   Min. Damping (>=0)   DampMin         ....    0.0000
   Turn off err/grad.   DampErr         ....    0.1000
 Fernandez-Rico         CNVRico         .... off

SCF Procedure:
 Maximum # iterations   MaxIter         ....   125
 SCF integral mode      SCFMode         .... Direct
   Integral package                     .... SHARK and LIBINT hybrid scheme
 Reset frequency        DirectResetFreq ....    20
 Integral Threshold     Thresh          ....  2.500e-11 Eh
 Primitive CutOff       TCut            ....  2.500e-12 Eh

Convergence Tolerance:
 Convergence Check Mode ConvCheckMode   .... Total+1el-Energy
 Convergence forced     ConvForced      .... 0
 Energy Change          TolE            ....  1.000e-08 Eh
 1-El. energy change                    ....  1.000e-05 Eh
 Orbital Gradient       TolG            ....  1.000e-05
 Orbital Rotation angle TolX            ....  1.000e-05
 DIIS Error             TolErr          ....  5.000e-07


Diagonalization of the overlap matrix:
Smallest eigenvalue                        ... 1.800e-05
Time for diagonalization                   ...    0.190 sec
Threshold for overlap eigenvalues          ... 1.000e-08
Number of eigenvalues below threshold      ... 0
Time for construction of square roots      ...    0.104 sec
Total time needed                          ...    0.300 sec

---------------------
INITIAL GUESS: MOREAD
---------------------
Guess MOs are being read from file: /beegfs/si93yaq/projekte/01_daza/02_4ethoxy/20_prot_addition/01_tsopt_irc_endopt_no_iterative/redund/qm_calcs/irc_000.062.orca.gbw
Input Geometry matches current geometry (good)
Input basis set matches current basis set (good)
MOs were renormalized
MOs were reorthogonalized (Cholesky)
                      ------------------
                      INITIAL GUESS DONE (   0.7 sec)
                      ------------------
-------------------
DFT GRID GENERATION
-------------------

General Integration Accuracy     IntAcc      ... 4.388
Radial Grid Type                 RadialGrid  ... OptM3 with GC (2021)
Angular Grid (max. ang.)         AngularGrid ... 4 (Lebedev-302)
Angular grid pruning method      GridPruning ... 4 (adaptive)
Weight generation scheme         WeightScheme... Becke
Basis function cutoff            BFCut       ... 1.0000e-11
Integration weight cutoff        WCut        ... 1.0000e-14
Angular grids for H and He will be reduced by one unit
Partially contracted basis set               ... off
Rotationally invariant grid construction     ... off

Total number of grid points                  ...   381359
Total number of batches                      ...     6001
Average number of points per batch           ...       63
Average number of grid points per atom       ...     4595
Time for grid setup =    2.434 sec

--------------
SCF ITERATIONS
--------------
ITER       Energy         Delta-E        Max-DP      RMS-DP      [F,P]     Damp
               ***  Starting incremental Fock matrix formation  ***
                      *** Initiating the SOSCF procedure ***
                      *** Re-Reading the Fockian *** 
                      *** Removing any level shift *** 
ITER      Energy       Delta-E        Grad      Rot      Max-DP    RMS-DP
  0  -1934.48549270 -1934.4854926992  0.000001  0.000001  0.000205  0.000001
               *** Restarting incremental Fock matrix formation ***
                  ***Gradient check signals convergence***
              ***Rediagonalizing the Fockian in SOSCF/NRSCF***

               *****************************************************
               *                     SUCCESS                       *
               *           SCF CONVERGED AFTER   1 CYCLES          *
               *****************************************************


----------------
TOTAL SCF ENERGY
----------------

Total Energy       :        -1934.48549270 Eh          -52640.02642 eV

Components:
Nuclear Repulsion  :         4867.72519384 Eh          132457.53654 eV
Electronic Energy  :        -6802.21068653 Eh         -185097.56296 eV
One Electron Energy:       -12321.99322786 Eh         -335298.48198 eV
Two Electron Energy:         5519.78254133 Eh          150200.91902 eV

Virial components:
Potential Energy   :        -3860.41326149 Eh         -105047.18534 eV
Kinetic Energy     :         1925.92776880 Eh           52407.15892 eV
Virial Ratio       :            2.00444343


DFT components:
N(Alpha)           :      154.999961878448 electrons
N(Beta)            :      154.999961878448 electrons
N(Total)           :      309.999923756896 electrons
E(X)               :     -259.187388595480 Eh       
E(C)               :      -10.153579392701 Eh       
E(XC)              :     -269.340967988181 Eh       
DFET-embed. en.    :        0.000000000000 Eh       

---------------
SCF CONVERGENCE
---------------

  Last Energy change         ...    3.6516e-10  Tolerance :   1.0000e-08
  Last MAX-Density change    ...    1.3153e-04  Tolerance :   1.0000e-07
  Last RMS-Density change    ...    6.5673e-07  Tolerance :   5.0000e-09
  Last Orbital Gradient      ...    1.1119e-06  Tolerance :   1.0000e-05
  Last Orbital Rotation      ...    7.2374e-06  Tolerance :   1.0000e-05

             **** THE GBW FILE WAS UPDATED (orca.gbw) ****
             **** DENSITY orca.scfp WAS UPDATED ****
             **** ENERGY FILE WAS UPDATED (orca.en.tmp) ****
             **** THE GBW FILE WAS UPDATED (orca.gbw) ****
             **** DENSITY orca.scfp WAS UPDATED ****
----------------
ORBITAL ENERGIES
----------------

  NO   OCC          E(Eh)            E(eV) 
   0   2.0000     -18.997727      -516.9544 
   1   2.0000     -18.983563      -516.5690 
   2   2.0000     -18.978208      -516.4233 
   3   2.0000     -18.971600      -516.2435 
   4   2.0000     -18.970949      -516.2258 
   5   2.0000     -18.937479      -515.3150 
   6   2.0000     -18.879877      -513.7476 
   7   2.0000     -14.235581      -387.3698 
   8   2.0000     -14.176456      -385.7610 
   9   2.0000     -14.165830      -385.4718 
  10   2.0000     -10.113644      -275.2063 
  11   2.0000     -10.112911      -275.1863 
  12   2.0000     -10.109663      -275.0979 
  13   2.0000     -10.103150      -274.9207 
  14   2.0000     -10.098762      -274.8013 
  15   2.0000     -10.096939      -274.7517 
  16   2.0000     -10.095532      -274.7134 
  17   2.0000     -10.095228      -274.7051 
  18   2.0000     -10.093566      -274.6599 
  19   2.0000     -10.092363      -274.6272 
  20   2.0000     -10.090879      -274.5868 
  21   2.0000     -10.089117      -274.5388 
  22   2.0000     -10.082818      -274.3674 
  23   2.0000     -10.074628      -274.1446 
  24   2.0000     -10.073561      -274.1155 
  25   2.0000     -10.068209      -273.9699 
  26   2.0000     -10.059773      -273.7403 
  27   2.0000     -10.058618      -273.7089 
  28   2.0000     -10.050529      -273.4888 
  29   2.0000     -10.043170      -273.2886 
  30   2.0000     -10.040651      -273.2200 
  31   2.0000     -10.037157      -273.1249 
  32   2.0000     -10.035463      -273.0788 
  33   2.0000     -10.032668      -273.0028 
  34   2.0000     -10.032215      -272.9905 
  35   2.0000     -10.030548      -272.9451 
  36   2.0000     -10.030490      -272.9435 
  37   2.0000     -10.027908      -272.8732 
  38   2.0000     -10.024084      -272.7692 
  39   2.0000     -10.023861      -272.7631 
  40   2.0000     -10.022366      -272.7224 
  41   2.0000     -10.013562      -272.4829 
  42   2.0000      -1.043788       -28.4029 
  43   2.0000      -1.029102       -28.0033 
  44   2.0000      -1.024824       -27.8869 
  45   2.0000      -1.023472       -27.8501 
  46   2.0000      -1.016430       -27.6585 
  47   2.0000      -0.993673       -27.0392 
  48   2.0000      -0.966666       -26.3043 
  49   2.0000      -0.923461       -25.1287 
  50   2.0000      -0.907688       -24.6994 
  51   2.0000      -0.887187       -24.1416 
  52   2.0000      -0.831414       -22.6239 
  53   2.0000      -0.816915       -22.2294 
  54   2.0000      -0.807889       -21.9838 
  55   2.0000      -0.776584       -21.1319 
  56   2.0000      -0.755722       -20.5643 
  57   2.0000      -0.748666       -20.3722 
  58   2.0000      -0.742014       -20.1912 
  59   2.0000      -0.729848       -19.8602 
  60   2.0000      -0.722183       -19.6516 
  61   2.0000      -0.720285       -19.5999 
  62   2.0000      -0.707992       -19.2654 
  63   2.0000      -0.704293       -19.1648 
  64   2.0000      -0.698320       -19.0023 
  65   2.0000      -0.695570       -18.9274 
  66   2.0000      -0.678638       -18.4667 
  67   2.0000      -0.648820       -17.6553 
  68   2.0000      -0.636652       -17.3242 
  69   2.0000      -0.623247       -16.9594 
  70   2.0000      -0.614039       -16.7088 
  71   2.0000      -0.605331       -16.4719 
  72   2.0000      -0.589865       -16.0510 
  73   2.0000      -0.585850       -15.9418 
  74   2.0000      -0.584268       -15.8987 
  75   2.0000      -0.575273       -15.6540 
  76   2.0000      -0.570189       -15.5156 
  77   2.0000      -0.568586       -15.4720 
  78   2.0000      -0.557695       -15.1756 
  79   2.0000      -0.545733       -14.8502 
  80   2.0000      -0.539127       -14.6704 
  81   2.0000      -0.524074       -14.2608 
  82   2.0000      -0.514087       -13.9890 
  83   2.0000      -0.510042       -13.8790 
  84   2.0000      -0.500486       -13.6189 
  85   2.0000      -0.492384       -13.3985 
  86   2.0000      -0.486879       -13.2487 
  87   2.0000      -0.479850       -13.0574 
  88   2.0000      -0.475401       -12.9363 
  89   2.0000      -0.469369       -12.7722 
  90   2.0000      -0.466277       -12.6880 
  91   2.0000      -0.459336       -12.4992 
  92   2.0000      -0.454733       -12.3739 
  93   2.0000      -0.451252       -12.2792 
  94   2.0000      -0.447654       -12.1813 
  95   2.0000      -0.444389       -12.0924 
  96   2.0000      -0.437516       -11.9054 
  97   2.0000      -0.430675       -11.7193 
  98   2.0000      -0.427597       -11.6355 
  99   2.0000      -0.420618       -11.4456 
 100   2.0000      -0.419279       -11.4092 
 101   2.0000      -0.417047       -11.3484 
 102   2.0000      -0.414812       -11.2876 
 103   2.0000      -0.412886       -11.2352 
 104   2.0000      -0.411765       -11.2047 
 105   2.0000      -0.411187       -11.1890 
 106   2.0000      -0.401830       -10.9344 
 107   2.0000      -0.400402       -10.8955 
 108   2.0000      -0.395588       -10.7645 
 109   2.0000      -0.393388       -10.7046 
 110   2.0000      -0.388271       -10.5654 
 111   2.0000      -0.382067       -10.3966 
 112   2.0000      -0.381321       -10.3763 
 113   2.0000      -0.377579       -10.2744 
 114   2.0000      -0.374259       -10.1841 
 115   2.0000      -0.370579       -10.0840 
 116   2.0000      -0.368509       -10.0276 
 117   2.0000      -0.366530        -9.9738 
 118   2.0000      -0.366033        -9.9603 
 119   2.0000      -0.363120        -9.8810 
 120   2.0000      -0.360694        -9.8150 
 121   2.0000      -0.359462        -9.7815 
 122   2.0000      -0.354763        -9.6536 
 123   2.0000      -0.353700        -9.6247 
 124   2.0000      -0.349150        -9.5009 
 125   2.0000      -0.342987        -9.3332 
 126   2.0000      -0.341708        -9.2983 
 127   2.0000      -0.340890        -9.2761 
 128   2.0000      -0.339241        -9.2312 
 129   2.0000      -0.337854        -9.1935 
 130   2.0000      -0.332504        -9.0479 
 131   2.0000      -0.329356        -8.9622 
 132   2.0000      -0.325842        -8.8666 
 133   2.0000      -0.322566        -8.7775 
 134   2.0000      -0.320038        -8.7087 
 135   2.0000      -0.318318        -8.6619 
 136   2.0000      -0.316690        -8.6176 
 137   2.0000      -0.304443        -8.2843 
 138   2.0000      -0.302858        -8.2412 
 139   2.0000      -0.300000        -8.1634 
 140   2.0000      -0.293532        -7.9874 
 141   2.0000      -0.287262        -7.8168 
 142   2.0000      -0.283573        -7.7164 
 143   2.0000      -0.274511        -7.4698 
 144   2.0000      -0.271624        -7.3913 
 145   2.0000      -0.253663        -6.9025 
 146   2.0000      -0.219486        -5.9725 
 147   2.0000      -0.218825        -5.9545 
 148   2.0000      -0.212661        -5.7868 
 149   2.0000      -0.207318        -5.6414 
 150   2.0000      -0.201286        -5.4773 
 151   2.0000      -0.195521        -5.3204 
 152   2.0000      -0.190893        -5.1945 
 153   2.0000      -0.187917        -5.1135 
 154   2.0000      -0.182900        -4.9770 
 155   0.0000      -0.080718        -2.1965 
 156   0.0000      -0.032752        -0.8912 
 157   0.0000      -0.029988        -0.8160 
 158   0.0000      -0.029269        -0.7965 
 159   0.0000      -0.014270        -0.3883 
 160   0.0000      -0.006792        -0.1848 
 161   0.0000       0.009688         0.2636 
 162   0.0000       0.041428         1.1273 
 163   0.0000       0.050498         1.3741 
 164   0.0000       0.051688         1.4065 
 165   0.0000       0.055162         1.5010 
 166   0.0000       0.058441         1.5903 
 167   0.0000       0.066598         1.8122 
 168   0.0000       0.068382         1.8608 
 169   0.0000       0.069623         1.8945 
 170   0.0000       0.076540         2.0827 
 171   0.0000       0.079908         2.1744 
 172   0.0000       0.084080         2.2879 
 173   0.0000       0.084927         2.3110 
 174   0.0000       0.086785         2.3615 
 175   0.0000       0.088853         2.4178 
 176   0.0000       0.093214         2.5365 
 177   0.0000       0.097742         2.6597 
 178   0.0000       0.100663         2.7392 
 179   0.0000       0.104872         2.8537 
 180   0.0000       0.106914         2.9093 
 181   0.0000       0.109706         2.9853 
 182   0.0000       0.110097         2.9959 
 183   0.0000       0.111919         3.0455 
 184   0.0000       0.113269         3.0822 
 185   0.0000       0.114724         3.1218 
 186   0.0000       0.118250         3.2177 
 187   0.0000       0.121748         3.3129 
 188   0.0000       0.124124         3.3776 
 189   0.0000       0.124951         3.4001 
 190   0.0000       0.126767         3.4495 
 191   0.0000       0.128545         3.4979 
 192   0.0000       0.131506         3.5785 
 193   0.0000       0.132350         3.6014 
 194   0.0000       0.134224         3.6524 
 195   0.0000       0.136551         3.7157 
 196   0.0000       0.140061         3.8112 
 197   0.0000       0.142607         3.8805 
 198   0.0000       0.147079         4.0022 
 199   0.0000       0.148254         4.0342 
 200   0.0000       0.149074         4.0565 
 201   0.0000       0.153283         4.1711 
 202   0.0000       0.154473         4.2034 
 203   0.0000       0.157915         4.2971 
 204   0.0000       0.162527         4.4226 
 205   0.0000       0.164411         4.4739 
 206   0.0000       0.166654         4.5349 
 207   0.0000       0.167375         4.5545 
 208   0.0000       0.169698         4.6177 
 209   0.0000       0.169904         4.6233 
 210   0.0000       0.172123         4.6837 
 211   0.0000       0.173511         4.7215 
 212   0.0000       0.176887         4.8134 
 213   0.0000       0.177153         4.8206 
 214   0.0000       0.177454         4.8288 
 215   0.0000       0.180151         4.9022 
 216   0.0000       0.182923         4.9776 
 217   0.0000       0.185161         5.0385 
 218   0.0000       0.188457         5.1282 
 219   0.0000       0.191980         5.2240 
 220   0.0000       0.194086         5.2813 
 221   0.0000       0.198338         5.3970 
 222   0.0000       0.199422         5.4265 
 223   0.0000       0.202561         5.5120 
 224   0.0000       0.202876         5.5205 
 225   0.0000       0.204100         5.5538 
 226   0.0000       0.206045         5.6068 
 227   0.0000       0.207592         5.6489 
 228   0.0000       0.210534         5.7289 
 229   0.0000       0.214441         5.8352 
 230   0.0000       0.215171         5.8551 
 231   0.0000       0.215914         5.8753 
 232   0.0000       0.219484         5.9725 
 233   0.0000       0.221647         6.0313 
 234   0.0000       0.224360         6.1052 
 235   0.0000       0.227527         6.1913 
 236   0.0000       0.228437         6.2161 
 237   0.0000       0.229915         6.2563 
 238   0.0000       0.231506         6.2996 
 239   0.0000       0.232413         6.3243 
 240   0.0000       0.235267         6.4019 
 241   0.0000       0.240435         6.5426 
 242   0.0000       0.242702         6.6043 
 243   0.0000       0.244528         6.6539 
 244   0.0000       0.246640         6.7114 
 245   0.0000       0.250108         6.8058 
 246   0.0000       0.253336         6.8936 
 247   0.0000       0.255120         6.9422 
 248   0.0000       0.259318         7.0564 
 249   0.0000       0.261270         7.1095 
 250   0.0000       0.263537         7.1712 
 251   0.0000       0.264204         7.1894 
 252   0.0000       0.265095         7.2136 
 253   0.0000       0.267687         7.2841 
 254   0.0000       0.270220         7.3531 
 255   0.0000       0.271752         7.3947 
 256   0.0000       0.274022         7.4565 
 257   0.0000       0.274955         7.4819 
 258   0.0000       0.277980         7.5642 
 259   0.0000       0.282673         7.6919 
 260   0.0000       0.287129         7.8132 
 261   0.0000       0.291915         7.9434 
 262   0.0000       0.294787         8.0216 
 263   0.0000       0.297763         8.1026 
 264   0.0000       0.298529         8.1234 
 265   0.0000       0.301164         8.1951 
 266   0.0000       0.304617         8.2890 
 267   0.0000       0.307336         8.3630 
 268   0.0000       0.309077         8.4104 
 269   0.0000       0.311562         8.4780 
 270   0.0000       0.318076         8.6553 
 271   0.0000       0.320121         8.7109 
 272   0.0000       0.321858         8.7582 
 273   0.0000       0.324254         8.8234 
 274   0.0000       0.326084         8.8732 
 275   0.0000       0.328412         8.9365 
 276   0.0000       0.330919         9.0048 
 277   0.0000       0.332013         9.0345 
 278   0.0000       0.334643         9.1061 
 279   0.0000       0.338266         9.2047 
 280   0.0000       0.339685         9.2433 
 281   0.0000       0.343005         9.3336 
 282   0.0000       0.345275         9.3954 
 283   0.0000       0.346796         9.4368 
 284   0.0000       0.350240         9.5305 
 285   0.0000       0.352216         9.5843 
 286   0.0000       0.356182         9.6922 
 287   0.0000       0.358818         9.7639 
 288   0.0000       0.362834         9.8732 
 289   0.0000       0.364821         9.9273 
 290   0.0000       0.370093        10.0707 
 291   0.0000       0.373634        10.1671 
 292   0.0000       0.374490        10.1904 
 293   0.0000       0.377014        10.2591 
 294   0.0000       0.377627        10.2757 
 295   0.0000       0.384296        10.4572 
 296   0.0000       0.385113        10.4795 
 297   0.0000       0.388281        10.5657 
 298   0.0000       0.388559        10.5732 
 299   0.0000       0.391048        10.6410 
 300   0.0000       0.392004        10.6670 
 301   0.0000       0.394588        10.7373 
 302   0.0000       0.400523        10.8988 
 303   0.0000       0.404666        11.0115 
 304   0.0000       0.406588        11.0638 
 305   0.0000       0.410726        11.1764 
 306   0.0000       0.412053        11.2125 
 307   0.0000       0.417304        11.3554 
 308   0.0000       0.419209        11.4073 
 309   0.0000       0.421399        11.4668 
 310   0.0000       0.426170        11.5967 
 311   0.0000       0.428567        11.6619 
 312   0.0000       0.429863        11.6972 
 313   0.0000       0.431200        11.7335 
 314   0.0000       0.436660        11.8821 
 315   0.0000       0.438231        11.9249 
 316   0.0000       0.439167        11.9503 
 317   0.0000       0.440340        11.9823 
 318   0.0000       0.442924        12.0526 
 319   0.0000       0.446270        12.1436 
 320   0.0000       0.447988        12.1904 
 321   0.0000       0.453320        12.3355 
 322   0.0000       0.455655        12.3990 
 323   0.0000       0.460499        12.5308 
 324   0.0000       0.463071        12.6008 
 325   0.0000       0.465351        12.6628 
 326   0.0000       0.466418        12.6919 
 327   0.0000       0.471898        12.8410 
 328   0.0000       0.476478        12.9656 
 329   0.0000       0.482213        13.1217 
 330   0.0000       0.487114        13.2550 
 331   0.0000       0.487594        13.2681 
 332   0.0000       0.496276        13.5043 
 333   0.0000       0.501440        13.6449 
 334   0.0000       0.502708        13.6794 
 335   0.0000       0.506764        13.7898 
 336   0.0000       0.508478        13.8364 
 337   0.0000       0.512039        13.9333 
 338   0.0000       0.514744        14.0069 
 339   0.0000       0.518299        14.1036 
 340   0.0000       0.520668        14.1681 
 341   0.0000       0.528842        14.3905 
 342   0.0000       0.532004        14.4766 
 343   0.0000       0.535654        14.5759 
 344   0.0000       0.536882        14.6093 
 345   0.0000       0.540119        14.6974 
 346   0.0000       0.542525        14.7629 
 347   0.0000       0.547758        14.9052 
 348   0.0000       0.552789        15.0422 
 349   0.0000       0.555089        15.1047 
 350   0.0000       0.558231        15.1902 
 351   0.0000       0.560993        15.2654 
 352   0.0000       0.563009        15.3203 
 353   0.0000       0.565333        15.3835 
 354   0.0000       0.568422        15.4676 
 355   0.0000       0.568907        15.4808 
 356   0.0000       0.573140        15.5959 
 357   0.0000       0.573798        15.6138 
 358   0.0000       0.578001        15.7282 
 359   0.0000       0.579889        15.7796 
 360   0.0000       0.586849        15.9690 
 361   0.0000       0.591771        16.1029 
 362   0.0000       0.593538        16.1510 
 363   0.0000       0.595050        16.1921 
 364   0.0000       0.595611        16.2074 
 365   0.0000       0.600547        16.3417 
 366   0.0000       0.602679        16.3997 
 367   0.0000       0.606684        16.5087 
 368   0.0000       0.610817        16.6212 
 369   0.0000       0.612749        16.6738 
 370   0.0000       0.615991        16.7620 
 371   0.0000       0.617802        16.8112 
 372   0.0000       0.621790        16.9198 
 373   0.0000       0.623377        16.9630 
 374   0.0000       0.625949        17.0329 
 375   0.0000       0.631566        17.1858 
 376   0.0000       0.635101        17.2820 
 377   0.0000       0.636665        17.3245 
 378   0.0000       0.640241        17.4218 
 379   0.0000       0.644819        17.5464 
 380   0.0000       0.647409        17.6169 
 381   0.0000       0.652398        17.7527 
 382   0.0000       0.655245        17.8301 
 383   0.0000       0.660330        17.9685 
 384   0.0000       0.663915        18.0660 
 385   0.0000       0.665203        18.1011 
 386   0.0000       0.666598        18.1391 
 387   0.0000       0.669122        18.2077 
 388   0.0000       0.671031        18.2597 
 389   0.0000       0.676033        18.3958 
 390   0.0000       0.677665        18.4402 
 391   0.0000       0.681432        18.5427 
 392   0.0000       0.686950        18.6929 
 393   0.0000       0.689438        18.7605 
 394   0.0000       0.694218        18.8906 
 395   0.0000       0.696610        18.9557 
 396   0.0000       0.697376        18.9766 
 397   0.0000       0.700076        19.0500 
 398   0.0000       0.707473        19.2513 
 399   0.0000       0.709954        19.3188 
 400   0.0000       0.714976        19.4555 
 401   0.0000       0.718310        19.5462 
 402   0.0000       0.721365        19.6293 
 403   0.0000       0.723136        19.6775 
 404   0.0000       0.725329        19.7372 
 405   0.0000       0.728295        19.8179 
 406   0.0000       0.731503        19.9052 
 407   0.0000       0.733596        19.9622 
 408   0.0000       0.737760        20.0755 
 409   0.0000       0.742342        20.2002 
 410   0.0000       0.751148        20.4398 
 411   0.0000       0.756183        20.5768 
 412   0.0000       0.760478        20.6937 
 413   0.0000       0.765927        20.8419 
 414   0.0000       0.771265        20.9872 
 415   0.0000       0.778727        21.1902 
 416   0.0000       0.782375        21.2895 
 417   0.0000       0.786589        21.4042 
 418   0.0000       0.794752        21.6263 
 419   0.0000       0.799828        21.7644 
 420   0.0000       0.806968        21.9587 
 421   0.0000       0.811410        22.0796 
 422   0.0000       0.817416        22.2430 
 423   0.0000       0.825000        22.4494 
 424   0.0000       0.828719        22.5506 
 425   0.0000       0.833394        22.6778 
 426   0.0000       0.840432        22.8693 
 427   0.0000       0.845135        22.9973 
 428   0.0000       0.856136        23.2967 
 429   0.0000       0.859657        23.3924 
 430   0.0000       0.861657        23.4469 
 431   0.0000       0.863862        23.5069 
 432   0.0000       0.871534        23.7157 
 433   0.0000       0.875162        23.8144 
 434   0.0000       0.877355        23.8741 
 435   0.0000       0.890962        24.2443 
 436   0.0000       0.896365        24.3913 
 437   0.0000       0.898441        24.4478 
 438   0.0000       0.908248        24.7147 
 439   0.0000       0.915282        24.9061 
 440   0.0000       0.920193        25.0397 
 441   0.0000       0.924294        25.1513 
 442   0.0000       0.931751        25.3542 
 443   0.0000       0.940893        25.6030 
 444   0.0000       0.943248        25.6671 
 445   0.0000       0.953839        25.9553 
 446   0.0000       0.962173        26.1821 
 447   0.0000       0.971361        26.4321 
 448   0.0000       0.978738        26.6328 
 449   0.0000       0.981374        26.7046 
 450   0.0000       0.985514        26.8172 
 451   0.0000       0.991379        26.9768 
 452   0.0000       1.000154        27.2156 
 453   0.0000       1.012712        27.5573 
 454   0.0000       1.020753        27.7761 
 455   0.0000       1.026513        27.9328 
 456   0.0000       1.032597        28.0984 
 457   0.0000       1.039065        28.2744 
 458   0.0000       1.043844        28.4044 
 459   0.0000       1.045483        28.4490 
 460   0.0000       1.049535        28.5593 
 461   0.0000       1.050976        28.5985 
 462   0.0000       1.057810        28.7845 
 463   0.0000       1.058854        28.8129 
 464   0.0000       1.065712        28.9995 
 465   0.0000       1.067714        29.0540 
 466   0.0000       1.074646        29.2426 
 467   0.0000       1.078140        29.3377 
 468   0.0000       1.088471        29.6188 
 469   0.0000       1.089625        29.6502 
 470   0.0000       1.098105        29.8809 
 471   0.0000       1.103415        30.0254 
 472   0.0000       1.111563        30.2472 
 473   0.0000       1.116509        30.3818 
 474   0.0000       1.118696        30.4413 
 475   0.0000       1.124149        30.5896 
 476   0.0000       1.127117        30.6704 
 477   0.0000       1.132453        30.8156 
 478   0.0000       1.137632        30.9565 
 479   0.0000       1.139185        30.9988 
 480   0.0000       1.141893        31.0725 
 481   0.0000       1.151932        31.3457 
 482   0.0000       1.161086        31.5948 
 483   0.0000       1.166689        31.7472 
 484   0.0000       1.171234        31.8709 
 485   0.0000       1.178075        32.0570 
 486   0.0000       1.187064        32.3017 
 487   0.0000       1.188393        32.3378 
 488   0.0000       1.197736        32.5921 
 489   0.0000       1.206939        32.8425 
 490   0.0000       1.220674        33.2162 
 491   0.0000       1.223644        33.2970 
 492   0.0000       1.231945        33.5229 
 493   0.0000       1.233912        33.5765 
 494   0.0000       1.237250        33.6673 
 495   0.0000       1.244155        33.8552 
 496   0.0000       1.246337        33.9146 
 497   0.0000       1.252134        34.0723 
 498   0.0000       1.256690        34.1963 
 499   0.0000       1.261493        34.3270 
 500   0.0000       1.265181        34.4273 
 501   0.0000       1.275036        34.6955 
 502   0.0000       1.280292        34.8385 
 503   0.0000       1.280897        34.8550 
[...]
 191:   1494.24    0.000054  ( 0.001093  0.000553  0.007252)
 192:   1508.83    0.000885  ( 0.012911  0.025690 -0.007618)
 193:   1511.18    0.000685  (-0.006219  0.021318  0.013863)
 194:   1511.21    0.000035  (-0.000540  0.005867  0.000107)
 195:   1512.77    0.006159  ( 0.038770  0.051935 -0.044253)
 196:   1517.22    0.001929  (-0.030049  0.029914 -0.011474)
 197:   1536.14    0.000707  ( 0.007223 -0.018178  0.018012)
 198:   1541.15    0.005134  ( 0.066029 -0.015040 -0.023406)
 199:   1543.74    0.011360  (-0.105618  0.006593 -0.012712)
 200:   1573.44    0.001270  ( 0.023751  0.026566  0.000680)
 201:   1605.36    0.003322  ( 0.019903  0.003625 -0.053971)
 202:   1622.59    0.003197  ( 0.011023 -0.040023 -0.038394)
 203:   1641.47    0.010673  ( 0.048229 -0.086329  0.029903)
 204:   1650.53    0.013537  (-0.102653 -0.023891  0.049277)
 205:   1656.69    0.023736  ( 0.149483  0.037296 -0.000574)
 206:   1661.50    0.009085  ( 0.084436 -0.021295  0.038758)
 207:   1674.05    0.017491  (-0.131547  0.009117  0.010185)
 208:   2229.91    0.024671  ( 0.145057  0.049294 -0.034637)
 209:   2856.46    0.001617  (-0.032042  0.024245  0.001484)
 210:   2896.27    0.000574  ( 0.010631 -0.005440 -0.020774)
 211:   2960.78    0.000451  ( 0.005243  0.005658 -0.019787)
 212:   2974.46    0.001037  (-0.026217  0.002566  0.018511)
 213:   2981.75    0.001753  ( 0.026573  0.001028 -0.032344)
 214:   3002.52    0.001137  ( 0.026127  0.021205  0.002140)
 215:   3006.85    0.000123  ( 0.000932 -0.010889  0.001898)
 216:   3010.48    0.000618  ( 0.015322  0.019513 -0.001629)
 217:   3010.65    0.000866  (-0.005326 -0.010897  0.026808)
 218:   3020.49    0.000905  ( 0.022368  0.015630  0.012682)
 219:   3023.39    0.000328  (-0.002738 -0.017017 -0.005592)
 220:   3025.00    0.000294  ( 0.011327 -0.009181  0.009039)
 221:   3025.19    0.000270  ( 0.007182 -0.014365  0.003402)
 222:   3030.84    0.000159  ( 0.008372 -0.009325  0.001438)
 223:   3035.89    0.000500  ( 0.010221 -0.005486  0.019113)
 224:   3043.77    0.000360  (-0.001818 -0.012960  0.013725)
 225:   3075.76    0.014863  ( 0.115691 -0.000906 -0.038439)
 226:   3078.44    0.000206  (-0.012905 -0.005299  0.003403)
 227:   3080.03    0.000023  ( 0.001736  0.002139 -0.003972)
 228:   3082.03    0.000241  (-0.012297  0.003001  0.009005)
 229:   3086.50    0.000130  ( 0.010090  0.001398 -0.005126)
 230:   3093.81    0.000065  ( 0.001681  0.006017 -0.005050)
 231:   3109.87    0.000387  ( 0.003689  0.012692 -0.014557)
 232:   3111.76    0.000304  (-0.014089 -0.010169 -0.001356)
 233:   3112.59    0.000414  ( 0.017669  0.005325  0.008565)
 234:   3119.43    0.000014  (-0.001903  0.001372 -0.002987)
 235:   3123.43    0.000454  ( 0.020314  0.006381 -0.000404)
 236:   3124.08    0.000498  ( 0.016991 -0.008420 -0.011776)
 237:   3124.19    0.000432  (-0.017334  0.001270  0.011419)
 238:   3131.06    0.000249  ( 0.015152 -0.003784  0.002251)
 239:   3156.54    0.000146  (-0.005176 -0.000323  0.010891)
 240:   3162.19    0.000111  (-0.009319 -0.004059 -0.002815)
 241:   3194.97    0.000055  ( 0.006532  0.001621  0.003166)
 242:   3196.10    0.000014  (-0.003545  0.001007 -0.000959)
 243:   3198.47    0.000044  ( 0.002723 -0.004175 -0.004387)
 244:   3205.88    0.000006  ( 0.002129 -0.000251  0.001126)
 245:   3210.43    0.000147  ( 0.004289  0.010627 -0.003909)
 246:   3218.67    0.000133  ( 0.010930 -0.001356  0.003414)
 247:   3355.98    0.000596  ( 0.000185  0.020441 -0.013348)
 248:   3706.51    0.005506  (-0.011089 -0.067764 -0.028130)

* The epsilon (eps) is given for a Dirac delta lineshape.
** The dipole moment derivative (T) already includes vibrational overlap.

The first frequency considered to be a vibration is 8
The total number of vibrations considered is 241


--------------------------
THERMOCHEMISTRY AT 298.15K
--------------------------

Temperature         ... 298.15 K
Pressure            ... 1.00 atm
Total Mass          ... 579.69 AMU

Throughout the following assumptions are being made:
  (1) The electronic state is orbitally nondegenerate
  (2) There are no thermally accessible electronically excited states
  (3) Hindered rotations indicated by low frequency modes are not
      treated as such but are treated as vibrations and this may
      cause some error
  (4) All equations used are the standard statistical mechanics
      equations for an ideal gas
  (5) All vibrations are strictly harmonic

freq.       8.76  E(vib)   ...       0.58 
freq.      16.62  E(vib)   ...       0.57 
freq.      20.13  E(vib)   ...       0.56 
freq.      25.39  E(vib)   ...       0.56 
freq.      31.10  E(vib)   ...       0.55 
freq.      37.57  E(vib)   ...       0.54 
freq.      43.20  E(vib)   ...       0.53 
freq.      47.12  E(vib)   ...       0.53 
freq.      58.28  E(vib)   ...       0.51 
freq.      65.09  E(vib)   ...       0.50 
freq.      74.92  E(vib)   ...       0.49 
freq.      80.58  E(vib)   ...       0.48 
freq.      85.03  E(vib)   ...       0.48 
freq.     104.51  E(vib)   ...       0.46 
freq.     106.88  E(vib)   ...       0.45 
freq.     113.13  E(vib)   ...       0.45 
freq.     131.60  E(vib)   ...       0.42 
freq.     137.70  E(vib)   ...       0.42 
freq.     141.36  E(vib)   ...       0.41 
freq.     155.55  E(vib)   ...       0.40 
freq.     177.30  E(vib)   ...       0.37 
freq.     189.25  E(vib)   ...       0.36 
freq.     190.75  E(vib)   ...       0.36 
freq.     199.28  E(vib)   ...       0.35 
freq.     205.14  E(vib)   ...       0.35 
freq.     207.74  E(vib)   ...       0.34 
freq.     220.07  E(vib)   ...       0.33 
freq.     228.49  E(vib)   ...       0.32 
freq.     231.97  E(vib)   ...       0.32 
freq.     239.44  E(vib)   ...       0.31 
freq.     253.73  E(vib)   ...       0.30 
freq.     258.20  E(vib)   ...       0.30 
freq.     265.99  E(vib)   ...       0.29 
freq.     282.33  E(vib)   ...       0.28 
freq.     309.34  E(vib)   ...       0.26 
freq.     316.02  E(vib)   ...       0.25 
freq.     320.55  E(vib)   ...       0.25 
freq.     328.31  E(vib)   ...       0.24 
freq.     343.25  E(vib)   ...       0.23 
freq.     352.13  E(vib)   ...       0.23 
freq.     356.79  E(vib)   ...       0.22 
freq.     368.14  E(vib)   ...       0.21 
freq.     371.36  E(vib)   ...       0.21 
freq.     389.05  E(vib)   ...       0.20 
freq.     406.99  E(vib)   ...       0.19 
freq.     422.70  E(vib)   ...       0.18 
freq.     430.52  E(vib)   ...       0.18 
freq.     437.00  E(vib)   ...       0.17 
freq.     446.21  E(vib)   ...       0.17 
freq.     450.75  E(vib)   ...       0.17 
freq.     454.40  E(vib)   ...       0.16 
freq.     459.65  E(vib)   ...       0.16 
freq.     464.60  E(vib)   ...       0.16 
freq.     475.43  E(vib)   ...       0.15 
freq.     492.48  E(vib)   ...       0.14 
freq.     497.94  E(vib)   ...       0.14 
freq.     508.46  E(vib)   ...       0.14 
freq.     528.13  E(vib)   ...       0.13 
freq.     535.94  E(vib)   ...       0.12 
freq.     543.32  E(vib)   ...       0.12 
freq.     567.41  E(vib)   ...       0.11 
freq.     575.32  E(vib)   ...       0.11 
freq.     578.52  E(vib)   ...       0.11 
freq.     590.44  E(vib)   ...       0.10 
freq.     600.22  E(vib)   ...       0.10 
freq.     611.36  E(vib)   ...       0.10 
freq.     637.58  E(vib)   ...       0.09 
freq.     645.34  E(vib)   ...       0.09 
freq.     652.94  E(vib)   ...       0.08 
freq.     656.38  E(vib)   ...       0.08 
freq.     658.97  E(vib)   ...       0.08 
freq.     710.04  E(vib)   ...       0.07 
freq.     719.95  E(vib)   ...       0.07 
freq.     725.54  E(vib)   ...       0.06 
freq.     737.99  E(vib)   ...       0.06 
freq.     741.28  E(vib)   ...       0.06 
freq.     749.88  E(vib)   ...       0.06 
freq.     751.32  E(vib)   ...       0.06 
freq.     776.83  E(vib)   ...       0.05 
freq.     782.27  E(vib)   ...       0.05 
freq.     786.62  E(vib)   ...       0.05 
freq.     805.22  E(vib)   ...       0.05 
freq.     816.49  E(vib)   ...       0.05 
freq.     817.69  E(vib)   ...       0.05 
freq.     820.34  E(vib)   ...       0.05 
freq.     820.85  E(vib)   ...       0.05 
freq.     828.83  E(vib)   ...       0.04 
freq.     832.07  E(vib)   ...       0.04 
freq.     845.03  E(vib)   ...       0.04 
freq.     852.70  E(vib)   ...       0.04 
freq.     856.21  E(vib)   ...       0.04 
freq.     860.25  E(vib)   ...       0.04 
freq.     876.76  E(vib)   ...       0.04 
freq.     889.29  E(vib)   ...       0.04 
freq.     895.99  E(vib)   ...       0.03 
freq.     900.56  E(vib)   ...       0.03 
freq.     908.91  E(vib)   ...       0.03 
freq.     913.34  E(vib)   ...       0.03 
freq.     920.09  E(vib)   ...       0.03 
freq.     921.87  E(vib)   ...       0.03 
freq.     951.19  E(vib)   ...       0.03 
freq.     961.00  E(vib)   ...       0.03 
freq.     977.18  E(vib)   ...       0.03 
freq.     982.50  E(vib)   ...       0.02 
freq.     985.75  E(vib)   ...       0.02 
freq.     987.63  E(vib)   ...       0.02 
freq.     991.08  E(vib)   ...       0.02 
freq.    1000.49  E(vib)   ...       0.02 
freq.    1021.93  E(vib)   ...       0.02 
freq.    1053.80  E(vib)   ...       0.02 
freq.    1056.45  E(vib)   ...       0.02 
freq.    1056.95  E(vib)   ...       0.02 
freq.    1083.30  E(vib)   ...       0.02 
freq.    1091.18  E(vib)   ...       0.02 
freq.    1109.98  E(vib)   ...       0.02 
freq.    1110.30  E(vib)   ...       0.02 
freq.    1110.37  E(vib)   ...       0.02 
freq.    1112.77  E(vib)   ...       0.01 
freq.    1122.56  E(vib)   ...       0.01 
freq.    1132.88  E(vib)   ...       0.01 
freq.    1136.56  E(vib)   ...       0.01 
freq.    1148.28  E(vib)   ...       0.01 
freq.    1161.95  E(vib)   ...       0.01 
freq.    1165.43  E(vib)   ...       0.01 
freq.    1174.91  E(vib)   ...       0.01 
freq.    1177.29  E(vib)   ...       0.01 
freq.    1180.54  E(vib)   ...       0.01 
freq.    1181.88  E(vib)   ...       0.01 
freq.    1183.52  E(vib)   ...       0.01 
freq.    1188.73  E(vib)   ...       0.01 
freq.    1197.57  E(vib)   ...       0.01 
freq.    1205.93  E(vib)   ...       0.01 
freq.    1207.63  E(vib)   ...       0.01 
freq.    1210.00  E(vib)   ...       0.01 
freq.    1222.22  E(vib)   ...       0.01 
freq.    1240.18  E(vib)   ...       0.01 
freq.    1249.36  E(vib)   ...       0.01 
freq.    1257.98  E(vib)   ...       0.01 
freq.    1261.78  E(vib)   ...       0.01 
freq.    1269.34  E(vib)   ...       0.01 
freq.    1270.62  E(vib)   ...       0.01 
freq.    1276.19  E(vib)   ...       0.01 
freq.    1285.53  E(vib)   ...       0.01 
freq.    1302.95  E(vib)   ...       0.01 
freq.    1308.04  E(vib)   ...       0.01 
freq.    1309.29  E(vib)   ...       0.01 
freq.    1315.12  E(vib)   ...       0.01 
freq.    1316.62  E(vib)   ...       0.01 
freq.    1318.21  E(vib)   ...       0.01 
freq.    1328.70  E(vib)   ...       0.01 
freq.    1331.07  E(vib)   ...       0.01 
freq.    1342.72  E(vib)   ...       0.01 
freq.    1343.51  E(vib)   ...       0.01 
freq.    1349.45  E(vib)   ...       0.01 
freq.    1352.49  E(vib)   ...       0.01 
freq.    1365.05  E(vib)   ...       0.01 
freq.    1372.01  E(vib)   ...       0.01 
freq.    1380.07  E(vib)   ...       0.01 
freq.    1383.11  E(vib)   ...       0.01 
freq.    1385.27  E(vib)   ...       0.00 
freq.    1389.66  E(vib)   ...       0.00 
freq.    1390.01  E(vib)   ...       0.00 
freq.    1393.40  E(vib)   ...       0.00 
freq.    1393.80  E(vib)   ...       0.00 
freq.    1403.42  E(vib)   ...       0.00 
freq.    1408.04  E(vib)   ...       0.00 
freq.    1409.58  E(vib)   ...       0.00 
freq.    1409.76  E(vib)   ...       0.00 
freq.    1420.27  E(vib)   ...       0.00 
freq.    1436.13  E(vib)   ...       0.00 
freq.    1442.73  E(vib)   ...       0.00 
freq.    1457.39  E(vib)   ...       0.00 
freq.    1466.14  E(vib)   ...       0.00 
freq.    1470.08  E(vib)   ...       0.00 
freq.    1476.36  E(vib)   ...       0.00 
freq.    1476.66  E(vib)   ...       0.00 
freq.    1477.52  E(vib)   ...       0.00 
freq.    1478.69  E(vib)   ...       0.00 
freq.    1488.54  E(vib)   ...       0.00 
freq.    1490.30  E(vib)   ...       0.00 
freq.    1492.97  E(vib)   ...       0.00 
freq.    1493.73  E(vib)   ...       0.00 
freq.    1493.98  E(vib)   ...       0.00 
freq.    1494.24  E(vib)   ...       0.00 
freq.    1508.83  E(vib)   ...       0.00 
freq.    1511.18  E(vib)   ...       0.00 
freq.    1511.21  E(vib)   ...       0.00 
freq.    1512.77  E(vib)   ...       0.00 
freq.    1517.22  E(vib)   ...       0.00 
freq.    1536.14  E(vib)   ...       0.00 
freq.    1541.15  E(vib)   ...       0.00 
freq.    1543.74  E(vib)   ...       0.00 
freq.    1573.44  E(vib)   ...       0.00 
freq.    1605.36  E(vib)   ...       0.00 
freq.    1622.59  E(vib)   ...       0.00 
freq.    1641.47  E(vib)   ...       0.00 
freq.    1650.53  E(vib)   ...       0.00 
freq.    1656.69  E(vib)   ...       0.00 
freq.    1661.50  E(vib)   ...       0.00 
freq.    1674.05  E(vib)   ...       0.00 
freq.    2229.91  E(vib)   ...       0.00 
freq.    2856.46  E(vib)   ...       0.00 
freq.    2896.27  E(vib)   ...       0.00 
freq.    2960.78  E(vib)   ...       0.00 
freq.    2974.46  E(vib)   ...       0.00 
freq.    2981.75  E(vib)   ...       0.00 
freq.    3002.52  E(vib)   ...       0.00 
freq.    3006.85  E(vib)   ...       0.00 
freq.    3010.48  E(vib)   ...       0.00 
freq.    3010.65  E(vib)   ...       0.00 
freq.    3020.49  E(vib)   ...       0.00 
freq.    3023.39  E(vib)   ...       0.00 
freq.    3025.00  E(vib)   ...       0.00 
freq.    3025.19  E(vib)   ...       0.00 
freq.    3030.84  E(vib)   ...       0.00 
freq.    3035.89  E(vib)   ...       0.00 
freq.    3043.77  E(vib)   ...       0.00 
freq.    3075.76  E(vib)   ...       0.00 
freq.    3078.44  E(vib)   ...       0.00 
freq.    3080.03  E(vib)   ...       0.00 
freq.    3082.03  E(vib)   ...       0.00 
freq.    3086.50  E(vib)   ...       0.00 
freq.    3093.81  E(vib)   ...       0.00 
freq.    3109.87  E(vib)   ...       0.00 
freq.    3111.76  E(vib)   ...       0.00 
freq.    3112.59  E(vib)   ...       0.00 
freq.    3119.43  E(vib)   ...       0.00 
freq.    3123.43  E(vib)   ...       0.00 
freq.    3124.08  E(vib)   ...       0.00 
freq.    3124.19  E(vib)   ...       0.00 
freq.    3131.06  E(vib)   ...       0.00 
freq.    3156.54  E(vib)   ...       0.00 
freq.    3162.19  E(vib)   ...       0.00 
freq.    3194.97  E(vib)   ...       0.00 
freq.    3196.10  E(vib)   ...       0.00 
freq.    3198.47  E(vib)   ...       0.00 
freq.    3205.88  E(vib)   ...       0.00 
freq.    3210.43  E(vib)   ...       0.00 
freq.    3218.67  E(vib)   ...       0.00 
freq.    3355.98  E(vib)   ...       0.00 
freq.    3706.51  E(vib)   ...       0.00 

------------
INNER ENERGY
------------

The inner energy is: U= E(el) + E(ZPE) + E(vib) + E(rot) + E(trans)
    E(el)   - is the total energy from the electronic structure calculation
              = E(kin-el) + E(nuc-el) + E(el-el) + E(nuc-nuc)
    E(ZPE)  - the the zero temperature vibrational energy from the frequency calculation
    E(vib)  - the the finite temperature correction to E(ZPE) due to population
              of excited vibrational states
    E(rot)  - is the rotational thermal energy
    E(trans)- is the translational thermal energy

Summary of contributions to the inner energy U:
Electronic energy                ...  -1934.46629754 Eh
Zero point energy                ...      0.69268475 Eh     434.67 kcal/mol
Thermal vibrational correction   ...      0.03594335 Eh      22.55 kcal/mol
Thermal rotational correction    ...      0.00141627 Eh       0.89 kcal/mol
Thermal translational correction ...      0.00141627 Eh       0.89 kcal/mol
-----------------------------------------------------------------------
Total thermal energy                  -1933.73483690 Eh


Summary of corrections to the electronic energy:
(perhaps to be used in another calculation)
Total thermal correction                  0.03877589 Eh      24.33 kcal/mol
Non-thermal (ZPE) correction              0.69268475 Eh     434.67 kcal/mol
-----------------------------------------------------------------------
Total correction                          0.73146064 Eh     459.00 kcal/mol


--------
ENTHALPY
--------

The enthalpy is H = U + kB*T
                kB is Boltzmann's constant
Total free energy                 ...  -1933.73483690 Eh 
Thermal Enthalpy correction       ...      0.00094421 Eh       0.59 kcal/mol
-----------------------------------------------------------------------
Total Enthalpy                    ...  -1933.73389269 Eh


Note: Only C1 symmetry has been detected, increase convergence thresholds 
      if your molecule has a higher symmetry. Symmetry factor of 1.0 is   
      used for the rotational entropy correction. 
 

Note: Rotational entropy computed according to Herzberg 
Infrared and Raman Spectra, Chapter V,1, Van Nostrand Reinhold, 1945 
Point Group:  C1, Symmetry Number:   1  
Rotational constants in cm-1:     0.003438     0.001057     0.000866 

Vibrational entropy computed according to the QRRHO of S. Grimme
Chem.Eur.J. 2012 18 9955


-------
ENTROPY
-------

The entropy contributions are T*S = T*(S(el)+S(vib)+S(rot)+S(trans))
     S(el)   - electronic entropy
     S(vib)  - vibrational entropy
     S(rot)  - rotational entropy
     S(trans)- translational entropy
The entropies will be listed as multiplied by the temperature to get
units of energy

Electronic entropy                ...      0.00000000 Eh      0.00 kcal/mol
Vibrational entropy               ...      0.06448006 Eh     40.46 kcal/mol
Rotational entropy                ...      0.01875317 Eh     11.77 kcal/mol
Translational entropy             ...      0.02136010 Eh     13.40 kcal/mol
-----------------------------------------------------------------------
Final entropy term                ...      0.10459333 Eh     65.63 kcal/mol

In case the symmetry of your molecule has not been determined correctly
or in case you have a reason to use a different symmetry number we print 
out the resulting rotational entropy values for sn=1,12 :
 --------------------------------------------------------
|  sn= 1 | S(rot)=       0.01875317 Eh     11.77 kcal/mol|
|  sn= 2 | S(rot)=       0.01809871 Eh     11.36 kcal/mol|
|  sn= 3 | S(rot)=       0.01771588 Eh     11.12 kcal/mol|
|  sn= 4 | S(rot)=       0.01744426 Eh     10.95 kcal/mol|
|  sn= 5 | S(rot)=       0.01723357 Eh     10.81 kcal/mol|
|  sn= 6 | S(rot)=       0.01706142 Eh     10.71 kcal/mol|
|  sn= 7 | S(rot)=       0.01691588 Eh     10.61 kcal/mol|
|  sn= 8 | S(rot)=       0.01678980 Eh     10.54 kcal/mol|
|  sn= 9 | S(rot)=       0.01667859 Eh     10.47 kcal/mol|
|  sn=10 | S(rot)=       0.01657911 Eh     10.40 kcal/mol|
|  sn=11 | S(rot)=       0.01648912 Eh     10.35 kcal/mol|
|  sn=12 | S(rot)=       0.01640697 Eh     10.30 kcal/mol|
 --------------------------------------------------------


-------------------
GIBBS FREE ENERGY
-------------------

The Gibbs free energy is G = H - T*S

Total enthalpy                    ...  -1933.73389269 Eh 
Total entropy correction          ...     -0.10459333 Eh    -65.63 kcal/mol
-----------------------------------------------------------------------
Final Gibbs free energy         ...  -1933.83848601 Eh

For completeness - the Gibbs free energy minus the electronic energy
G-E(el)                           ...      0.62781152 Eh    393.96 kcal/mol


Timings for individual modules:

Sum of individual times         ...     1716.581 sec (=  28.610 min)
GTO integral calculation        ...        1.718 sec (=   0.029 min)   0.1 %
SCF iterations                  ...       10.259 sec (=   0.171 min)   0.6 %
Analytical frequency calculation...     1704.605 sec (=  28.410 min)  99.3 %
                             ****ORCA TERMINATED NORMALLY****
TOTAL RUN TIME: 0 days 0 hours 28 minutes 38 seconds 537 msec
