
                                 *****************
                                 * O   R   C   A *
                                 *****************

                                            #,                                       
                                            ###                                      
                                            ####                                     
                                            #####                                    
                                            ######                                   
                                           ########,                                 
                                     ,,################,,,,,                         
                               ,,#################################,,                 
                          ,,##########################################,,             
                       ,#########################################, ''#####,          
                    ,#############################################,,   '####,        
                  ,##################################################,,,,####,       
                ,###########''''           ''''###############################       
              ,#####''   ,,,,##########,,,,          '''####'''          '####       
            ,##' ,,,,###########################,,,                        '##       
           ' ,,###''''                  '''############,,,                           
         ,,##''                                '''############,,,,        ,,,,,,###''
      ,#''                                            '''#######################'''  
     '                                                          ''''####''''         
             ,#######,   #######,   ,#######,      ##                                
            ,#'     '#,  ##    ##  ,#'     '#,    #''#        ######   ,####,        
            ##       ##  ##   ,#'  ##            #'  '#       #        #'  '#        
            ##       ##  #######   ##           ,######,      #####,   #    #        
            '#,     ,#'  ##    ##  '#,     ,#' ,#      #,         ##   #,  ,#        
             '#######'   ##     ##  '#######'  #'      '#     #####' # '####'        



                  #######################################################
                  #                        -***-                        #
                  #          Department of theory and spectroscopy      #
                  #    Directorship and core code : Frank Neese         #
                  #        Max Planck Institute fuer Kohlenforschung    #
                  #                Kaiser Wilhelm Platz 1               #
                  #                 D-45470 Muelheim/Ruhr               #
                  #                      Germany                        #
                  #                                                     #
                  #                  All rights reserved                #
                  #                        -***-                        #
                  #######################################################


                         Program Version 5.0.2 -  RELEASE  -


 With contributions from (in alphabetic order):
   Daniel Aravena         : Magnetic Suceptibility
   Michael Atanasov       : Ab Initio Ligand Field Theory (pilot matlab implementation)
   Alexander A. Auer      : GIAO ZORA, VPT2 properties, NMR spectrum
   Ute Becker             : Parallelization
   Giovanni Bistoni       : ED, misc. LED, open-shell LED, HFLD
   Martin Brehm           : Molecular dynamics
   Dmytro Bykov           : SCF Hessian
   Vijay G. Chilkuri      : MRCI spin determinant printing, contributions to CSF-ICE
   Dipayan Datta          : RHF DLPNO-CCSD density
   Achintya Kumar Dutta   : EOM-CC, STEOM-CC
   Dmitry Ganyushin       : Spin-Orbit,Spin-Spin,Magnetic field MRCI
   Miquel Garcia          : C-PCM and meta-GGA Hessian, CC/C-PCM, Gaussian charge scheme
   Yang Guo               : DLPNO-NEVPT2, F12-NEVPT2, CIM, IAO-localization
   Andreas Hansen         : Spin unrestricted coupled pair/coupled cluster methods
   Benjamin Helmich-Paris : MC-RPA, TRAH-SCF, COSX integrals
   Lee Huntington         : MR-EOM, pCC
   Robert Izsak           : Overlap fitted RIJCOSX, COSX-SCS-MP3, EOM
   Marcus Kettner         : VPT2
   Christian Kollmar      : KDIIS, OOCD, Brueckner-CCSD(T), CCSD density, CASPT2, CASPT2-K
   Simone Kossmann        : Meta GGA functionals, TD-DFT gradient, OOMP2, MP2 Hessian
   Martin Krupicka        : Initial AUTO-CI
   Lucas Lang             : DCDCAS
   Marvin Lechner         : AUTO-CI (C++ implementation), FIC-MRCC
   Dagmar Lenk            : GEPOL surface, SMD
   Dimitrios Liakos       : Extrapolation schemes; Compound Job, initial MDCI parallelization
   Dimitrios Manganas     : Further ROCIS development; embedding schemes
   Dimitrios Pantazis     : SARC Basis sets
   Anastasios Papadopoulos: AUTO-CI, single reference methods and gradients
   Taras Petrenko         : DFT Hessian,TD-DFT gradient, ASA, ECA, R-Raman, ABS, FL, XAS/XES, NRVS
   Peter Pinski           : DLPNO-MP2, DLPNO-MP2 Gradient
   Christoph Reimann      : Effective Core Potentials
   Marius Retegan         : Local ZFS, SOC
   Christoph Riplinger    : Optimizer, TS searches, QM/MM, DLPNO-CCSD(T), (RO)-DLPNO pert. Triples
   Tobias Risthaus        : Range-separated hybrids, TD-DFT gradient, RPA, STAB
   Michael Roemelt        : Original ROCIS implementation
   Masaaki Saitow         : Open-shell DLPNO-CCSD energy and density
   Barbara Sandhoefer     : DKH picture change effects
   Avijit Sen             : IP-ROCIS
   Kantharuban Sivalingam : CASSCF convergence, NEVPT2, FIC-MRCI
   Bernardo de Souza      : ESD, SOC TD-DFT
   Georgi Stoychev        : AutoAux, RI-MP2 NMR, DLPNO-MP2 response
   Willem Van den Heuvel  : Paramagnetic NMR
   Boris Wezisla          : Elementary symmetry handling
   Frank Wennmohs         : Technical directorship


 We gratefully acknowledge several colleagues who have allowed us to
 interface, adapt or use parts of their codes:
   Stefan Grimme, W. Hujo, H. Kruse, P. Pracht,  : VdW corrections, initial TS optimization,
                  C. Bannwarth, S. Ehlert          DFT functionals, gCP, sTDA/sTD-DF
   Ed Valeev, F. Pavosevic, A. Kumar             : LibInt (2-el integral package), F12 methods
   Garnet Chan, S. Sharma, J. Yang, R. Olivares  : DMRG
   Ulf Ekstrom                                   : XCFun DFT Library
   Mihaly Kallay                                 : mrcc  (arbitrary order and MRCC methods)
   Jiri Pittner, Ondrej Demel                    : Mk-CCSD
   Frank Weinhold                                : gennbo (NPA and NBO analysis)
   Christopher J. Cramer and Donald G. Truhlar   : smd solvation model
   Lars Goerigk                                  : TD-DFT with DH, B97 family of functionals
   V. Asgeirsson, H. Jonsson                     : NEB implementation
   FAccTs GmbH                                   : IRC, NEB, NEB-TS, DLPNO-Multilevel, CI-OPT
                                                   MM, QMMM, 2- and 3-layer-ONIOM, Crystal-QMMM,
                                                   LR-CPCM, SF, NACMEs, symmetry and pop. for TD-DFT,
                                                   nearIR, NL-DFT gradient (VV10), updates on ESD,
                                                   ML-optimized integration grids
   S Lehtola, MJT Oliveira, MAL Marques          : LibXC Library
   Liviu Ungur et al                             : ANISO software


 Your calculation uses the libint2 library for the computation of 2-el integrals
 For citations please refer to: http://libint.valeyev.net

 Your ORCA version has been built with support for libXC version: 5.1.0
 For citations please refer to: https://tddft.org/programs/libxc/

 This ORCA versions uses:
   CBLAS   interface :  Fast vector & matrix operations
   LAPACKE interface :  Fast linear algebra routines
   SCALAPACK package :  Parallel linear algebra routines
   Shared memory     :  Shared parallel matrices
   BLAS/LAPACK       :  OpenBLAS 0.3.15  USE64BITINT DYNAMIC_ARCH NO_AFFINITY SkylakeX SINGLE_THREADED
        Core in use  :  SkylakeX
   Copyright (c) 2011-2014, The OpenBLAS Project


Your calculation utilizes the geometrical counterpoise correction gCP
Please cite in your paper:
H.Kruse, S. Grimme J.Chem.Phys., 136, (2012), 154101 
   

Your calculation utilizes the atom-pairwise dispersion correction
based on tight binding partial charges (D4)
Cite in your paper:
E.Caldeweyher, C.Bannwarth, S.Grimme, J.Chem.Phys., (2017), 147, 034112.
E.Caldeweyher, S.Ehlert, A.Hansen, H.Neugebauer, S.Grimme, J.Chem.Phys., (2018), in progress.
   

================================================================================

----- Orbital basis set information -----
Your calculation utilizes the basis: def2-mTZVPP
   Stefan Grimme, Andreas Hansen, Sebastian Ehlert, and Jan-Michael Mewes 
   J. Chem. Phys. 154, 000000 (2021). DOI: 10.1063/5.0040021

----- AuxJ basis set information -----
Your calculation utilizes the basis: def2-mTZVPP/J
   Stefan Grimme, Andreas Hansen, Sebastian Ehlert, and Jan-Michael Mewes 
   J. Chem. Phys. 154, 000000 (2021). DOI: 10.1063/5.0040021

================================================================================
                                        WARNINGS
                       Please study these warnings very carefully!
================================================================================

Using LibXC functional ID 497 : Re-regularized SCAN exchange by Furness et al
[ 1]  J. W. Furness, A. D. Kaplan, J. Ning, J. P. Perdew, and J. Sun, J. Phys. Chem. Lett. 11, 8208 (2020)
[ 2]  J. W. Furness, A. D. Kaplan, J. Ning, J. P. Perdew, and J. Sun, J. Phys. Chem. Lett. 11, 9248 (2020)
Using LibXC functional ID 498 : Re-regularized SCAN correlation by Furness et al
[ 1]  J. W. Furness, A. D. Kaplan, J. Ning, J. P. Perdew, and J. Sun, J. Phys. Chem. Lett. 11, 8208 (2020)
[ 2]  J. W. Furness, A. D. Kaplan, J. Ning, J. P. Perdew, and J. Sun, J. Phys. Chem. Lett. 11, 9248 (2020)
Using LibXC functional ID 497 : Re-regularized SCAN exchange by Furness et al
[ 1]  J. W. Furness, A. D. Kaplan, J. Ning, J. P. Perdew, and J. Sun, J. Phys. Chem. Lett. 11, 8208 (2020)
[ 2]  J. W. Furness, A. D. Kaplan, J. Ning, J. P. Perdew, and J. Sun, J. Phys. Chem. Lett. 11, 9248 (2020)
Using LibXC functional ID 498 : Re-regularized SCAN correlation by Furness et al
[ 1]  J. W. Furness, A. D. Kaplan, J. Ning, J. P. Perdew, and J. Sun, J. Phys. Chem. Lett. 11, 8208 (2020)
[ 2]  J. W. Furness, A. D. Kaplan, J. Ning, J. P. Perdew, and J. Sun, J. Phys. Chem. Lett. 11, 9248 (2020)

INFO   : the flag for use of the SHARK integral package has been found!

================================================================================
                                       INPUT FILE
================================================================================
NAME = orca.inp
|  1> !r2scan-3c tightscf freq
|  2>         !moread
|  3>             %moinp "/beegfs/si93yaq/projekte/01_daza/02_4ethoxy/20_prot_addition/01_tsopt_irc_endopt_no_iterative/redund/qm_calcs/irc_000.023.orca.gbw" 
|  4> 
|  5>         %pal nprocs 24 end
|  6>         %maxcore 6000
|  7> 
|  8>         
|  9>         
| 10> 
| 11>         *xyz 0 1
| 12>         C -3.58901465 4.18281566 1.99383647
| 13> C -4.70808021 3.61980980 1.36869681
| 14> C -2.33464201 3.99403010 1.44107320
| 15> C -2.14115093 3.25386068 0.27212776
| 16> C -3.27435806 2.71972319 -0.34770346
| 17> C -4.55408252 2.89278112 0.18789960
| 18> O -5.89788592 3.83286930 1.99931595
| 19> C -7.10956965 3.39443987 1.37090198
| 20> O -3.08791572 2.03968383 -1.51946721
| 21> C -0.76395846 2.97687758 -0.26027442
| 22> N 0.04415708 2.11692769 0.62988126
| 23> N -0.19478484 -0.49428006 -0.68337159
| 24> C 1.32028630 1.79431184 -0.02697610
| 25> C 1.91998915 0.44842613 0.39316452
| 26> C 1.15659770 -0.77703095 -0.20725731
| 27> C -0.66079314 1.00109213 1.25234467
| 28> C -1.17717568 -0.11190649 0.33391314
| 29> N 3.29575625 0.39343282 -0.08464177
| 30> C 4.24677774 0.26931593 0.77391790
| 31> C 5.63512069 0.23000230 0.39249528
| 32> C 6.63243252 0.09487136 1.36642024
| 33> C 6.03427455 0.33427465 -0.97040287
| 34> C 7.97670893 0.05935566 1.04665448
| 35> C 7.38301299 0.29965815 -1.30177130
| 36> C 8.34887273 0.16692247 -0.30556043
| 37> O 5.13320413 0.46753374 -1.95155813
| 38> O 9.63134131 0.17266942 -0.75074248
| 39> C 10.70444301 -0.03453451 0.18130906
| 40> H -3.73011354 4.75327952 2.90550081
| 41> H -1.46156906 4.41065118 1.93788260
| 42> H -5.40156164 2.47174579 -0.34207098
| 43> C -7.55124231 4.33154391 0.25967266
| 44> H -7.84549034 3.38986047 2.18087946
| 45> H -7.00232555 2.35895797 1.01872458
| 46> H -3.79118442 1.39213251 -1.67553165
| 47> H -0.21303651 3.92293413 -0.37512896
| 48> H 2.05688019 2.57962047 0.20281130
| 49> H 1.21525522 1.77776536 -1.12803516
| 50> H 1.91519121 0.38457396 1.49314010
| 51> H 1.17815822 -1.59608179 0.53693275
| 52> H 1.74078724 -1.11109733 -1.07324912
| 53> H -1.52435749 1.40287499 1.79421129
| 54> H -0.00965639 0.57303882 2.02274010
| 55> H -2.07363122 0.23495857 -0.19068842
| 56> H -1.47911736 -0.97295715 0.96027871
| 57> H 4.03120153 0.19305331 1.85311168
| 58> H 6.33272911 0.01513437 2.40925218
| 59> H 8.71158873 -0.04926679 1.83356772
| 60> H 7.68596992 0.38377704 -2.33962660
| 61> H 4.23126882 0.47800684 -1.51338959
| 62> C 10.87792388 -1.50095742 0.53484208
| 63> H 10.55921834 0.59194052 1.07126312
| 64> H 11.58812320 0.33949801 -0.34441949
| 65> O -0.92618323 -0.48016606 -2.78197735
| 66> C -0.73436464 -1.44852539 -1.74248110
| 67> C -1.99011035 -2.21447601 -1.40074275
| 68> C -1.90014513 -3.39841028 -0.67117343
| 69> C -3.27647188 -1.73333652 -1.71989945
| 70> C -4.41076222 -2.41135455 -1.28996585
| 71> C -3.02198832 -4.09067665 -0.22792002
| 72> C -4.28869708 -3.57986978 -0.53822341
| 73> O -3.44196206 -0.60312532 -2.45021489
| 74> O -5.46983077 -4.13741186 -0.14848943
| 75> C -5.45543964 -5.41742680 0.49889323
| 76> H 0.06472044 -2.15442967 -2.01578116
| 77> H -0.91347340 -3.79261076 -0.43368713
| 78> H -5.39582230 -2.03669300 -1.54716799
| 79> H -2.89552982 -5.00794982 0.33282117
| 80> H -2.53163742 -0.33532731 -2.74794718
| 81> C -5.24894978 -6.55425266 -0.48718828
| 82> H -6.44186308 -5.49129616 0.96694629
| 83> H -4.70739336 -5.42874228 1.30316865
| 84> H -8.50160812 3.98724605 -0.16223643
| 85> H -6.81479061 4.38019656 -0.54716807
| 86> H -7.69339707 5.34202122 0.65360276
| 87> H 11.74051555 -1.62319669 1.19861786
| 88> H 11.05261567 -2.08903282 -0.37069175
| 89> H 9.99539982 -1.90376493 1.03960178
| 90> H -6.03560254 -6.54140006 -1.24705562
| 91> H -5.28929563 -7.51496117 0.03733189
| 92> H -4.28270831 -6.47863860 -0.99367090
| 93> H -0.84828861 2.53986461 -1.26946049
| 94> H -0.52303250 0.27779805 -2.31179251
| 95>         *
| 96>                                   ****END OF INPUT****
================================================================================

                       ****************************
                       * Single Point Calculation *
                       ****************************

---------------------------------
CARTESIAN COORDINATES (ANGSTROEM)
---------------------------------
  C     -3.589015    4.182816    1.993836
  C     -4.708080    3.619810    1.368697
  C     -2.334642    3.994030    1.441073
  C     -2.141151    3.253861    0.272128
  C     -3.274358    2.719723   -0.347703
  C     -4.554083    2.892781    0.187900
  O     -5.897886    3.832869    1.999316
  C     -7.109570    3.394440    1.370902
  O     -3.087916    2.039684   -1.519467
  C     -0.763958    2.976878   -0.260274
  N      0.044157    2.116928    0.629881
  N     -0.194785   -0.494280   -0.683372
  C      1.320286    1.794312   -0.026976
  C      1.919989    0.448426    0.393165
  C      1.156598   -0.777031   -0.207257
  C     -0.660793    1.001092    1.252345
  C     -1.177176   -0.111906    0.333913
  N      3.295756    0.393433   -0.084642
  C      4.246778    0.269316    0.773918
  C      5.635121    0.230002    0.392495
  C      6.632433    0.094871    1.366420
  C      6.034275    0.334275   -0.970403
  C      7.976709    0.059356    1.046654
  C      7.383013    0.299658   -1.301771
  C      8.348873    0.166922   -0.305560
  O      5.133204    0.467534   -1.951558
  O      9.631341    0.172669   -0.750742
  C     10.704443   -0.034535    0.181309
  H     -3.730114    4.753280    2.905501
  H     -1.461569    4.410651    1.937883
  H     -5.401562    2.471746   -0.342071
  C     -7.551242    4.331544    0.259673
  H     -7.845490    3.389860    2.180879
  H     -7.002326    2.358958    1.018725
  H     -3.791184    1.392133   -1.675532
  H     -0.213037    3.922934   -0.375129
  H      2.056880    2.579620    0.202811
  H      1.215255    1.777765   -1.128035
  H      1.915191    0.384574    1.493140
  H      1.178158   -1.596082    0.536933
  H      1.740787   -1.111097   -1.073249
  H     -1.524357    1.402875    1.794211
  H     -0.009656    0.573039    2.022740
  H     -2.073631    0.234959   -0.190688
  H     -1.479117   -0.972957    0.960279
  H      4.031202    0.193053    1.853112
  H      6.332729    0.015134    2.409252
  H      8.711589   -0.049267    1.833568
  H      7.685970    0.383777   -2.339627
  H      4.231269    0.478007   -1.513390
  C     10.877924   -1.500957    0.534842
  H     10.559218    0.591941    1.071263
  H     11.588123    0.339498   -0.344419
  O     -0.926183   -0.480166   -2.781977
  C     -0.734365   -1.448525   -1.742481
  C     -1.990110   -2.214476   -1.400743
  C     -1.900145   -3.398410   -0.671173
  C     -3.276472   -1.733337   -1.719899
  C     -4.410762   -2.411355   -1.289966
  C     -3.021988   -4.090677   -0.227920
  C     -4.288697   -3.579870   -0.538223
  O     -3.441962   -0.603125   -2.450215
  O     -5.469831   -4.137412   -0.148489
  C     -5.455440   -5.417427    0.498893
  H      0.064720   -2.154430   -2.015781
  H     -0.913473   -3.792611   -0.433687
  H     -5.395822   -2.036693   -1.547168
  H     -2.895530   -5.007950    0.332821
  H     -2.531637   -0.335327   -2.747947
  C     -5.248950   -6.554253   -0.487188
  H     -6.441863   -5.491296    0.966946
  H     -4.707393   -5.428742    1.303169
  H     -8.501608    3.987246   -0.162236
  H     -6.814791    4.380197   -0.547168
  H     -7.693397    5.342021    0.653603
  H     11.740516   -1.623197    1.198618
  H     11.052616   -2.089033   -0.370692
  H      9.995400   -1.903765    1.039602
  H     -6.035603   -6.541400   -1.247056
  H     -5.289296   -7.514961    0.037332
  H     -4.282708   -6.478639   -0.993671
  H     -0.848289    2.539865   -1.269460
  H     -0.523033    0.277798   -2.311793

----------------------------
CARTESIAN COORDINATES (A.U.)
----------------------------
  NO LB      ZA    FRAG     MASS         X           Y           Z
   0 C     6.0000    0    12.011   -6.782255    7.904376    3.767805
   1 C     6.0000    0    12.011   -8.896982    6.840449    2.586462
   2 C     6.0000    0    12.011   -4.411834    7.547623    2.723234
   3 C     6.0000    0    12.011   -4.046189    6.148906    0.514247
   4 C     6.0000    0    12.011   -6.187640    5.139532   -0.657064
   5 C     6.0000    0    12.011   -8.605969    5.466564    0.355079
   6 O     8.0000    0    15.999  -11.145389    7.243073    3.778160
   7 C     6.0000    0    12.011  -13.435140    6.414562    2.590629
   8 O     8.0000    0    15.999   -5.835315    3.854444   -2.871377
   9 C     6.0000    0    12.011   -1.443672    5.625483   -0.491847
  10 N     7.0000    0    14.007    0.083445    4.000414    1.190303
  11 N     7.0000    0    14.007   -0.368090   -0.934054   -1.291385
  12 C     6.0000    0    12.011    2.494980    3.390758   -0.050977
  13 C     6.0000    0    12.011    3.628254    0.847403    0.742973
  14 C     6.0000    0    12.011    2.185653   -1.468376   -0.391660
  15 C     6.0000    0    12.011   -1.248718    1.891790    2.366588
  16 C     6.0000    0    12.011   -2.224540   -0.211473    0.631004
  17 N     7.0000    0    14.007    6.228077    0.743480   -0.159950
  18 C     6.0000    0    12.011    8.025247    0.508933    1.462493
  19 C     6.0000    0    12.011   10.648835    0.434641    0.741709
  20 C     6.0000    0    12.011   12.533481    0.179281    2.582160
  21 C     6.0000    0    12.011   11.403126    0.631688   -1.833796
  22 C     6.0000    0    12.011   15.073795    0.112166    1.977890
  23 C     6.0000    0    12.011   13.951873    0.566272   -2.459991
  24 C     6.0000    0    12.011   15.777083    0.315438   -0.577426
  25 O     8.0000    0    15.999    9.700350    0.883511   -3.687910
  26 O     8.0000    0    15.999   18.200597    0.326298   -1.418698
  27 C     6.0000    0    12.011   20.228466   -0.065261    0.342624
  28 H     1.0000    0     1.008   -7.048893    8.982397    5.490601
  29 H     1.0000    0     1.008   -2.761965    8.334923    3.662067
  30 H     1.0000    0     1.008  -10.207472    4.670923   -0.646420
  31 C     6.0000    0    12.011  -14.269780    8.185432    0.490710
  32 H     1.0000    0     1.008  -14.825828    6.405908    4.121265
  33 H     1.0000    0     1.008  -13.232478    4.457785    1.925110
  34 H     1.0000    0     1.008   -7.164300    2.630749   -3.166296
  35 H     1.0000    0     1.008   -0.402581    7.413271   -0.708891
  36 H     1.0000    0     1.008    3.886940    4.874776    0.383258
  37 H     1.0000    0     1.008    2.296500    3.359490   -2.131678
  38 H     1.0000    0     1.008    3.619187    0.726739    2.821626
  39 H     1.0000    0     1.008    2.226396   -3.016157    1.014656
  40 H     1.0000    0     1.008    3.289611   -2.099670   -2.028147
  41 H     1.0000    0     1.008   -2.880618    2.651050    3.390568
  42 H     1.0000    0     1.008   -0.018248    1.082886    3.822425
  43 H     1.0000    0     1.008   -3.918595    0.444007   -0.360349
  44 H     1.0000    0     1.008   -2.795127   -1.838623    1.814664
  45 H     1.0000    0     1.008    7.617867    0.364818    3.501874
  46 H     1.0000    0     1.008   11.967124    0.028600    4.552827
  47 H     1.0000    0     1.008   16.462517   -0.093101    3.464941
  48 H     1.0000    0     1.008   14.524378    0.725234   -4.421254
  49 H     1.0000    0     1.008    7.995939    0.903302   -2.859892
  50 C     6.0000    0    12.011   20.556297   -2.836398    1.010705
  51 H     1.0000    0     1.008   19.954031    1.118605    2.024394
  52 H     1.0000    0     1.008   21.898379    0.641558   -0.650859
  53 O     8.0000    0    15.999   -1.750233   -0.907382   -5.257175
  54 C     6.0000    0    12.011   -1.387748   -2.737316   -3.292812
  55 C     6.0000    0    12.011   -3.760764   -4.184753   -2.647020
  56 C     6.0000    0    12.011   -3.590754   -6.422065   -1.268334
  57 C     6.0000    0    12.011   -6.191635   -3.275531   -3.250139
  58 C     6.0000    0    12.011   -8.335133   -4.556800   -2.437682
  59 C     6.0000    0    12.011   -5.710730   -7.730259   -0.430706
  60 C     6.0000    0    12.011   -8.104463   -6.764973   -1.017095
  61 O     8.0000    0    15.999   -6.504366   -1.139742   -4.630235
  62 O     8.0000    0    15.999  -10.336482   -7.818575   -0.280604
  63 C     6.0000    0    12.011  -10.309287  -10.237453    0.942772
  64 H     1.0000    0     1.008    0.122304   -4.071282   -3.809274
  65 H     1.0000    0     1.008   -1.726215   -7.166996   -0.819550
  66 H     1.0000    0     1.008  -10.196626   -3.848792   -2.923724
  67 H     1.0000    0     1.008   -5.471758   -9.463654    0.628941
  68 H     1.0000    0     1.008   -4.784101   -0.633677   -5.192868
  69 C     6.0000    0    12.011   -9.919078  -12.385743   -0.920652
  70 H     1.0000    0     1.008  -12.173357  -10.377046    1.827264
  71 H     1.0000    0     1.008   -8.895684  -10.258836    2.462632
  72 H     1.0000    0     1.008  -16.065711    7.534803   -0.306582
  73 H     1.0000    0     1.008  -12.878088    8.277372   -1.033998
  74 H     1.0000    0     1.008  -14.538414   10.094957    1.235130
  75 H     1.0000    0     1.008   22.186359   -3.067397    2.265059
  76 H     1.0000    0     1.008   20.886417   -3.947700   -0.700506
  77 H     1.0000    0     1.008   18.888568   -3.597594    1.964563
  78 H     1.0000    0     1.008  -11.405636  -12.361455   -2.356594
  79 H     1.0000    0     1.008   -9.995320  -14.201219    0.070547
  80 H     1.0000    0     1.008   -8.093146  -12.242853   -1.877766
  81 H     1.0000    0     1.008   -1.603033    4.799649   -2.398933
  82 H     1.0000    0     1.008   -0.988388    0.524962   -4.368655

--------------------------------
INTERNAL COORDINATES (ANGSTROEM)
--------------------------------
 C      0   0   0     0.000000000000     0.00000000     0.00000000
 C      1   0   0     1.400029614143     0.00000000     0.00000000
 C      1   2   0     1.383704426641   119.43026971     0.00000000
 C      3   1   2     1.397040804715   122.14728922   359.90938317
 C      4   3   1     1.397731018112   117.46642945     1.13843181
 C      2   1   3     1.395194624850   119.94900994   359.05105693
 O      2   1   3     1.363346059452   115.35257880   178.62572489
 C      7   2   1     1.433632429993   119.14718861   174.57745036
 O      5   4   3     1.367568851323   117.35219096   177.53031119
 C      4   3   1     1.502275213927   121.41197379   184.40566466
 N     10   4   3     1.478154820693   113.26783435    65.44471610
 N     11  10   4     2.932598200031   101.75894329   100.74458474
 C     11  10   4     1.471070482402   109.44787764   174.60004432
 C     13  11  10     1.532178185869   114.18849461   208.80429636
 C     12  11  10     1.460434059734    87.19166862   147.51395173
 C     11  10   4     1.459282188758   115.95226629    40.73421406
 C     12  11  10     1.464981068629    60.74297529   270.04598953
 N     14  13  11     1.457414912903   108.22351127   192.65151272
 C     18  14  13     1.287234082743   118.84176512   119.20002295
 C     19  18  14     1.440321118142   122.55789661   181.10299698
 C     20  19  18     1.400507438364   120.32379043   179.93338897
 C     20  19  18     1.423969063639   121.44343389     0.31957993
 C     21  20  19     1.382241141298   122.28648720   180.33148608
 C     22  20  19     1.389279927879   119.90707976   179.65993155
 C     24  22  20     1.393893789212   120.30521090   359.82309063
 O     22  20  19     1.338787336022   121.33649083   359.72250875
 O     25  24  22     1.357551377946   114.82351527   181.26234455
 C     27  25  24     1.436384628283   119.49617312   183.54369844
 H      1   2   3     1.084651917047   118.87014479   180.32056933
 H      3   1   2     1.087496703558   119.53949507   181.43849450
 H      6   2   1     1.084601504521   121.97736147   182.15198738
 C      8   7   2     1.519233136159   112.19091137   282.29297158
 H      8   7   2     1.094378248588   104.19390064   162.86450927
 H      8   7   2     1.098978154143   110.25135471    47.91004166
 H      9   5   4     0.968641154332   111.80778639   154.59067344
 H     10   4   3     1.100785881154   109.71412785   306.20241016
 H     13  11  10     1.100946162324   109.31527281    87.83346765
 H     13  11  10     1.106180983101   111.42989963   330.54171650
 H     14  13  11     1.101837735984   108.84130865   311.24350015
 H     15  12  11     1.106854994988   112.36348502   113.94297841
 H     15  12  11     1.096731316175   107.12412454   231.37412227
 H     16  11  10     1.095806683248   108.13538021   304.38519444
 H     16  11  10     1.095772705431   108.15189886   190.83343492
 H     17  12  11     1.095059222965   107.39622271   100.05181403
 H     17  12  11     1.106756903972   111.89313337   217.32230733
 H     19  18  14     1.103153799032   120.98292460     0.73215532
 H     21  20  19     1.087969933695   118.51992680     0.35501911
 H     23  21  20     1.082164314871   119.65584341   180.17144595
 H     24  22  20     1.084436495526   119.83841146   180.28277803
 H     26  22  20     1.002790436080   106.62887132     0.36273963
 C     28  27  25     1.518379846896   112.07123961    78.73858516
 H     28  27  25     1.097988796346   110.17106755   313.08775701
 H     28  27  25     1.094157901082   104.02102296   198.09540176
 O     12  11  10     2.222451112127   116.36047782    16.11372297
 C     54  12  11     1.433550353923    42.85830549   194.01062399
 C     55  54  12     1.510086997601   113.29436701   123.70012349
 C     56  55  54     1.393580097869   119.71651563   163.82074400
 C     56  55  54     1.409993685751   122.29986498   339.67480444
 C     58  56  55     1.389663961118   120.54041105   185.44393058
 C     57  56  55     1.390769015854   122.52415113   174.45640703
 C     59  58  56     1.394791897468   120.26900498   359.87271497
 O     58  56  55     1.355774685626   121.18166154     5.43627450
 O     61  59  58     1.363019640280   114.89526354   178.53860306
 C     63  61  59     1.434485852044   119.03538333   173.11298743
 H     55  54  12     1.100695571172   110.50623647   247.06529091
 H     57  56  55     1.088721665028   118.70564932   354.87214633
 H     59  58  56     1.084835277394   119.95431548   180.45009121
 H     60  57  56     1.082502888119   119.51451308   179.80852942
 H     62  58  56     0.994510553418   105.90304719     6.61555932
 C     64  63  61     1.519002252339   112.09902850   282.82910350
 H     64  63  61     1.094331555016   104.13537589   163.39436828
 H     64  63  61     1.098435354641   110.27131825    48.38260973
 H     32   8   7     1.095328019108   109.88293354   182.59048269
 H     32   8   7     1.093489894956   111.79874820    62.29860590
 H     32   8   7     1.093825074453   110.13217913   301.98788735
 H     51  28  27     1.095264860387   109.80855402   176.64941643
 H     51  28  27     1.093773932242   110.16610641    57.30667898
 H     51  28  27     1.093565252436   111.77761299   296.92380963
 H     70  64  63     1.093794372147   110.14634096   301.98810214
 H     70  64  63     1.095312757862   109.91062398   182.55324206
 H     70  64  63     1.093555992521   111.65548401    62.27057149
 H     10   4   3     1.102972544549   109.10034882   189.93385950
 H     54  12  11     0.978832920837    54.25269604    21.03325002

---------------------------
INTERNAL COORDINATES (A.U.)
---------------------------
 C      0   0   0     0.000000000000     0.00000000     0.00000000
 C      1   0   0     2.645672550110     0.00000000     0.00000000
 C      1   2   0     2.614822416646   119.43026971     0.00000000
 C      3   1   2     2.640024518825   122.14728922   359.90938317
 C      4   3   1     2.641328833119   117.46642945     1.13843181
 C      2   1   3     2.636535744486   119.94900994   359.05105693
 O      2   1   3     2.576350678125   115.35257880   178.62572489
 C      7   2   1     2.709172669395   119.14718861   174.57745036
 O      5   4   3     2.584330598281   117.35219096   177.53031119
 C      4   3   1     2.838888732100   121.41197379   184.40566466
 N     10   4   3     2.793307794644   113.26783435    65.44471610
 N     11  10   4     5.541807458889   101.75894329   100.74458474
 C     11  10   4     2.779920335436   109.44787764   174.60004432
 C     13  11  10     2.895397159662   114.18849461   208.80429636
 C     12  11  10     2.759820409549    87.19166862   147.51395173
 C     11  10   4     2.757643688862   115.95226629    40.73421406
 C     12  11  10     2.768413011088    60.74297529   270.04598953
 N     14  13  11     2.754115048879   108.22351127   192.65151272
 C     18  14  13     2.432519886634   118.84176512   119.20002295
 C     19  18  14     2.721812458192   122.55789661   181.10299698
 C     20  19  18     2.646575507028   120.32379043   179.93338897
 C     20  19  18     2.690911553454   121.44343389     0.31957993
 C     21  20  19     2.612057208092   122.28648720   180.33148608
 C     22  20  19     2.625358587045   119.90707976   179.65993155
 C     24  22  20     2.634077521385   120.30521090   359.82309063
 O     22  20  19     2.529941416643   121.33649083   359.72250875
 O     25  24  22     2.565400317046   114.82351527   181.26234455
 C     27  25  24     2.714373570428   119.49617312   183.54369844
 H      1   2   3     2.049695073851   118.87014479   180.32056933
 H      3   1   2     2.055070941268   119.53949507   181.43849450
 H      6   2   1     2.049599807984   121.97736147   182.15198738
 C      8   7   2     2.870934560919   112.19091137   282.29297158
 H      8   7   2     2.068075176751   104.19390064   162.86450927
 H      8   7   2     2.076767738492   110.25135471    47.91004166
 H      9   5   4     1.830466503733   111.80778639   154.59067344
 H     10   4   3     2.080183847469   109.71412785   306.20241016
 H     13  11  10     2.080486734985   109.31527281    87.83346765
 H     13  11  10     2.090379112613   111.42989963   330.54171650
 H     14  13  11     2.082171565030   108.84130865   311.24350015
 H     15  12  11     2.091652810490   112.36348502   113.94297841
 H     15  12  11     2.072521830066   107.12412454   231.37412227
 H     16  11  10     2.070774527059   108.13538021   304.38519444
 H     16  11  10     2.070710318290   108.15189886   190.83343492
 H     17  12  11     2.069362031828   107.39622271   100.05181403
 H     17  12  11     2.091467445333   111.89313337   217.32230733
 H     19  18  14     2.084658563765   120.98292460     0.73215532
 H     21  20  19     2.055965216624   118.51992680     0.35501911
 H     23  21  20     2.044994187008   119.65584341   180.17144595
 H     24  22  20     2.049287986173   119.83841146   180.28277803
 H     26  22  20     1.894999293907   106.62887132     0.36273963
 C     28  27  25     2.869322077898   112.07123961    78.73858516
 H     28  27  25     2.074898123207   110.17106755   313.08775701
 H     28  27  25     2.067658780312   104.02102296   198.09540176
 O     12  11  10     4.199823947949   116.36047782    16.11372297
 C     54  12  11     2.709017568100    42.85830549   194.01062399
 C     55  54  12     2.853650863861   113.29436701   123.70012349
 C     56  55  54     2.633484730655   119.71651563   163.82074400
 C     56  55  54     2.664501916627   122.29986498   339.67480444
 C     58  56  55     2.626084304694   120.54041105   185.44393058
 C     57  56  55     2.628172555507   122.52415113   174.45640703
 C     59  58  56     2.635774700027   120.26900498   359.87271497
 O     58  56  55     2.562042855136   121.18166154     5.43627450
 O     61  59  58     2.575733835286   114.89526354   178.53860306
 C     63  61  59     2.710785403348   119.03538333   173.11298743
 H     55  54  12     2.080013186334   110.50623647   247.06529091
 H     57  56  55     2.057385782969   118.70564932   354.87214633
 H     59  58  56     2.050041574691   119.95431548   180.45009121
 H     60  57  56     2.045633997724   119.51451308   179.80852942
 H     62  58  56     1.879352583254   105.90304719     6.61555932
 C     64  63  61     2.870498253731   112.09902850   282.82910350
 H     64  63  61     2.067986938688   104.13537589   163.39436828
 H     64  63  61     2.075741996088   110.27131825    48.38260973
 H     32   8   7     2.069869982924   109.88293354   182.59048269
 H     32   8   7     2.066396431678   111.79874820    62.29860590
 H     32   8   7     2.067029829132   110.13217913   301.98788735
 H     51  28  27     2.069750630239   109.80855402   176.64941643
 H     51  28  27     2.066933184360   110.16610641    57.30667898
 H     51  28  27     2.066538836676   111.77761299   296.92380963
 H     70  64  63     2.066971810183   110.14634096   301.98810214
 H     70  64  63     2.069841143349   109.91062398   182.55324206
 H     70  64  63     2.066521337974   111.65548401    62.27057149
 H     10   4   3     2.084316042432   109.10034882   189.93385950
 H     54  12  11     1.849726151247    54.25269604    21.03325002

---------------------
BASIS SET INFORMATION
---------------------
There are 4 groups of distinct atoms

 Group   1 Type C   : 11s6p1d contracted to 5s3p1d pattern {62111/411/1}
 Group   2 Type O   : 11s6p2d contracted to 5s3p2d pattern {62111/411/11}
 Group   3 Type N   : 11s6p2d contracted to 5s3p2d pattern {62111/411/11}
 Group   4 Type H   : 4s1p contracted to 2s1p pattern {31/1}

Atom   0C    basis set group =>   1
Atom   1C    basis set group =>   1
Atom   2C    basis set group =>   1
Atom   3C    basis set group =>   1
Atom   4C    basis set group =>   1
Atom   5C    basis set group =>   1
Atom   6O    basis set group =>   2
Atom   7C    basis set group =>   1
Atom   8O    basis set group =>   2
Atom   9C    basis set group =>   1
Atom  10N    basis set group =>   3
Atom  11N    basis set group =>   3
Atom  12C    basis set group =>   1
Atom  13C    basis set group =>   1
Atom  14C    basis set group =>   1
Atom  15C    basis set group =>   1
Atom  16C    basis set group =>   1
Atom  17N    basis set group =>   3
Atom  18C    basis set group =>   1
Atom  19C    basis set group =>   1
Atom  20C    basis set group =>   1
Atom  21C    basis set group =>   1
Atom  22C    basis set group =>   1
Atom  23C    basis set group =>   1
Atom  24C    basis set group =>   1
Atom  25O    basis set group =>   2
Atom  26O    basis set group =>   2
Atom  27C    basis set group =>   1
Atom  28H    basis set group =>   4
Atom  29H    basis set group =>   4
Atom  30H    basis set group =>   4
Atom  31C    basis set group =>   1
Atom  32H    basis set group =>   4
Atom  33H    basis set group =>   4
Atom  34H    basis set group =>   4
Atom  35H    basis set group =>   4
Atom  36H    basis set group =>   4
Atom  37H    basis set group =>   4
Atom  38H    basis set group =>   4
Atom  39H    basis set group =>   4
Atom  40H    basis set group =>   4
Atom  41H    basis set group =>   4
Atom  42H    basis set group =>   4
Atom  43H    basis set group =>   4
Atom  44H    basis set group =>   4
Atom  45H    basis set group =>   4
Atom  46H    basis set group =>   4
Atom  47H    basis set group =>   4
Atom  48H    basis set group =>   4
Atom  49H    basis set group =>   4
Atom  50C    basis set group =>   1
Atom  51H    basis set group =>   4
Atom  52H    basis set group =>   4
Atom  53O    basis set group =>   2
Atom  54C    basis set group =>   1
Atom  55C    basis set group =>   1
Atom  56C    basis set group =>   1
Atom  57C    basis set group =>   1
Atom  58C    basis set group =>   1
Atom  59C    basis set group =>   1
Atom  60C    basis set group =>   1
Atom  61O    basis set group =>   2
Atom  62O    basis set group =>   2
Atom  63C    basis set group =>   1
Atom  64H    basis set group =>   4
Atom  65H    basis set group =>   4
Atom  66H    basis set group =>   4
Atom  67H    basis set group =>   4
Atom  68H    basis set group =>   4
Atom  69C    basis set group =>   1
Atom  70H    basis set group =>   4
Atom  71H    basis set group =>   4
Atom  72H    basis set group =>   4
Atom  73H    basis set group =>   4
Atom  74H    basis set group =>   4
Atom  75H    basis set group =>   4
Atom  76H    basis set group =>   4
Atom  77H    basis set group =>   4
Atom  78H    basis set group =>   4
Atom  79H    basis set group =>   4
Atom  80H    basis set group =>   4
Atom  81H    basis set group =>   4
Atom  82H    basis set group =>   4
---------------------------------
AUXILIARY/J BASIS SET INFORMATION
---------------------------------
There are 4 groups of distinct atoms

 Group   1 Type C   : 8s3p3d contracted to 6s3p3d pattern {311111/111/111}
 Group   2 Type O   : 8s3p3d contracted to 6s3p3d pattern {311111/111/111}
 Group   3 Type N   : 8s3p3d contracted to 6s3p3d pattern {311111/111/111}
 Group   4 Type H   : 5s2p1d contracted to 3s1p1d pattern {311/2/1}

Atom   0C    basis set group =>   1
Atom   1C    basis set group =>   1
Atom   2C    basis set group =>   1
Atom   3C    basis set group =>   1
Atom   4C    basis set group =>   1
Atom   5C    basis set group =>   1
Atom   6O    basis set group =>   2
Atom   7C    basis set group =>   1
Atom   8O    basis set group =>   2
Atom   9C    basis set group =>   1
Atom  10N    basis set group =>   3
Atom  11N    basis set group =>   3
Atom  12C    basis set group =>   1
Atom  13C    basis set group =>   1
Atom  14C    basis set group =>   1
Atom  15C    basis set group =>   1
Atom  16C    basis set group =>   1
Atom  17N    basis set group =>   3
Atom  18C    basis set group =>   1
Atom  19C    basis set group =>   1
Atom  20C    basis set group =>   1
Atom  21C    basis set group =>   1
Atom  22C    basis set group =>   1
Atom  23C    basis set group =>   1
Atom  24C    basis set group =>   1
Atom  25O    basis set group =>   2
Atom  26O    basis set group =>   2
Atom  27C    basis set group =>   1
Atom  28H    basis set group =>   4
Atom  29H    basis set group =>   4
Atom  30H    basis set group =>   4
Atom  31C    basis set group =>   1
Atom  32H    basis set group =>   4
Atom  33H    basis set group =>   4
Atom  34H    basis set group =>   4
Atom  35H    basis set group =>   4
Atom  36H    basis set group =>   4
Atom  37H    basis set group =>   4
Atom  38H    basis set group =>   4
Atom  39H    basis set group =>   4
Atom  40H    basis set group =>   4
Atom  41H    basis set group =>   4
Atom  42H    basis set group =>   4
Atom  43H    basis set group =>   4
Atom  44H    basis set group =>   4
Atom  45H    basis set group =>   4
Atom  46H    basis set group =>   4
Atom  47H    basis set group =>   4
Atom  48H    basis set group =>   4
Atom  49H    basis set group =>   4
Atom  50C    basis set group =>   1
Atom  51H    basis set group =>   4
Atom  52H    basis set group =>   4
Atom  53O    basis set group =>   2
Atom  54C    basis set group =>   1
Atom  55C    basis set group =>   1
Atom  56C    basis set group =>   1
Atom  57C    basis set group =>   1
Atom  58C    basis set group =>   1
Atom  59C    basis set group =>   1
Atom  60C    basis set group =>   1
Atom  61O    basis set group =>   2
Atom  62O    basis set group =>   2
Atom  63C    basis set group =>   1
Atom  64H    basis set group =>   4
Atom  65H    basis set group =>   4
Atom  66H    basis set group =>   4
Atom  67H    basis set group =>   4
Atom  68H    basis set group =>   4
Atom  69C    basis set group =>   1
Atom  70H    basis set group =>   4
Atom  71H    basis set group =>   4
Atom  72H    basis set group =>   4
Atom  73H    basis set group =>   4
Atom  74H    basis set group =>   4
Atom  75H    basis set group =>   4
Atom  76H    basis set group =>   4
Atom  77H    basis set group =>   4
Atom  78H    basis set group =>   4
Atom  79H    basis set group =>   4
Atom  80H    basis set group =>   4
Atom  81H    basis set group =>   4
Atom  82H    basis set group =>   4


           ************************************************************
           *        Program running with 24 parallel MPI-processes    *
           *              working on a common directory               *
           ************************************************************
------------------------------------------------------------------------------
                           ORCA GTO INTEGRAL CALCULATION
                           -- RI-GTO INTEGRALS CHOSEN --
------------------------------------------------------------------------------
------------------------------------------------------------------------------
                   ___                                                        
                  /   \      - P O W E R E D   B Y -                         
                 /     \                                                     
                 |  |  |   _    _      __       _____    __    __             
                 |  |  |  | |  | |    /  \     |  _  \  |  |  /  |          
                  \  \/   | |  | |   /    \    | | | |  |  | /  /          
                 / \  \   | |__| |  /  /\  \   | |_| |  |  |/  /          
                |  |  |   |  __  | /  /__\  \  |    /   |      \           
                |  |  |   | |  | | |   __   |  |    \   |  |\   \          
                \     /   | |  | | |  |  |  |  | |\  \  |  | \   \       
                 \___/    |_|  |_| |__|  |__|  |_| \__\ |__|  \__/        
                                                                              
                      - O R C A' S   B I G   F R I E N D -                    
                                      &                                       
                       - I N T E G R A L  F E E D E R -                       
                                                                              
 v1 FN, 2020, v2 2021                                                         
------------------------------------------------------------------------------


Reading SHARK input file orca.SHARKINP.tmp ... ok
----------------------
SHARK INTEGRAL PACKAGE
----------------------

Number of atoms                             ...     83
Number of basis functions                   ...   1053
Number of shells                            ...    511
Maximum angular momentum                    ...      2
Integral batch strategy                     ... SHARK/LIBINT Hybrid
RI-J (if used) integral strategy            ... SPLIT-RIJ (Revised 2003 algorithm where possible)
Printlevel                                  ...      1
Contraction scheme used                     ... SEGMENTED contraction
Coulomb Range Separation                    ... NOT USED
Exchange Range Separation                   ... NOT USED
Finite Nucleus Model                        ... NOT USED
Auxiliary Coulomb fitting basis             ... AVAILABLE
   # of basis functions in Aux-J            ...   1711
   # of shells in Aux-J                     ...    709
   Maximum angular momentum in Aux-J        ...      2
Auxiliary J/K fitting basis                 ... NOT available
Auxiliary Correlation fitting basis         ... NOT available
Auxiliary 'external' fitting basis          ... NOT available
Integral threshold                          ...     2.500000e-11
Primitive cut-off                           ...     2.500000e-12
Primitive pair pre-selection threshold      ...     2.500000e-12

Calculating pre-screening integrals         ... done (  0.1 sec) Dimension = 511
Organizing shell pair data                  ... done (  0.4 sec)
Shell pair information
Total number of shell pairs                 ...    130816
Shell pairs after pre-screening             ...     59126
Total number of primitive shell pairs       ...    472953
Primitive shell pairs kept                  ...    127179
          la=0 lb=0:  18210 shell pairs
          la=1 lb=0:  22747 shell pairs
          la=1 lb=1:   7139 shell pairs
          la=2 lb=0:   6404 shell pairs
          la=2 lb=1:   4034 shell pairs
          la=2 lb=2:    592 shell pairs

Calculating one electron integrals          ... done (  0.1 sec)
Calculating RI/J V-Matrix + Cholesky decomp.... done (  0.1 sec)
Calculating Nuclear repulsion               ... done (  0.0 sec) ENN=   4867.162129958944 Eh

SHARK setup successfully completed in   1.1 seconds

Maximum memory used throughout the entire GTOINT-calculation: 88.2 MB


           ************************************************************
           *        Program running with 24 parallel MPI-processes    *
           *              working on a common directory               *
           ************************************************************
-------------------------------------------------------------------------------
                                 ORCA SCF
-------------------------------------------------------------------------------

------------
SCF SETTINGS
------------
Hamiltonian:
 Density Functional     Method          .... DFT(GTOs)
  Functional kind                       .... Exchange
  Functional name                       .... Re-regularized SCAN exchange by Furness et al
  Functional family                     .... MGGA
  Functional refs                              
    [ 0] J. W. Furness, A. D. Kaplan, J. Ning, J. P. Perdew, and J. Sun, J. Phys. Chem. Lett. 11, 8208 (2020)
    [ 1] J. W. Furness, A. D. Kaplan, J. Ning, J. P. Perdew, and J. Sun, J. Phys. Chem. Lett. 11, 9248 (2020)
  Functional external parameters         .... 8
 Parameter  0 :         c1 parameter
 Parameter  1 :         c2 parameter
 Parameter  2 :          d parameter
 Parameter  3 :         k1 parameter
 Parameter  4 :       taur parameter
 Parameter  5 :     alphar parameter
 Parameter  6 :        eta parameter
 Parameter  7 :        dp2 parameter
  Functional kind                       .... Correlation
  Functional name                       .... Re-regularized SCAN correlation by Furness et al
  Functional family                     .... MGGA
  Functional refs                              
    [ 0] J. W. Furness, A. D. Kaplan, J. Ning, J. P. Perdew, and J. Sun, J. Phys. Chem. Lett. 11, 8208 (2020)
    [ 1] J. W. Furness, A. D. Kaplan, J. Ning, J. P. Perdew, and J. Sun, J. Phys. Chem. Lett. 11, 9248 (2020)
  Functional external parameters         .... 0
 Gradients option       PostSCFGGA      .... off
   Density functional embedding theory  .... OFF
 RI-approximation to the Coulomb term is turned on
   Number of AuxJ basis functions       .... 1711


General Settings:
 Integral files         IntName         .... orca
 Hartree-Fock type      HFTyp           .... RHF
 Total Charge           Charge          ....    0
 Multiplicity           Mult            ....    1
 Number of Electrons    NEL             ....  310
 Basis Dimension        Dim             .... 1053
 Nuclear Repulsion      ENuc            ....   4867.1621299589 Eh

Convergence Acceleration:
 DIIS                   CNVDIIS         .... on
   Start iteration      DIISMaxIt       ....    12
   Startup error        DIISStart       ....  0.200000
   # of expansion vecs  DIISMaxEq       ....     5
   Bias factor          DIISBfac        ....   1.050
   Max. coefficient     DIISMaxC        ....  10.000
 Trust-Rad. Augm. Hess. CNVTRAH         .... auto
   Auto Start mean grad. ratio tolernc. ....  1.125000
   Auto Start start iteration           ....     1
   Auto Start num. interpolation iter.  ....    10
   Max. Number of Micro iterations      ....    16
   Max. Number of Macro iterations      .... Maxiter - #DIIS iter
   Number of Davidson start vectors     ....     2
   Converg. threshold I  (grad. norm)   ....   1.000e-05
   Converg. threshold II (energy diff.) ....   1.000e-08
   Grad. Scal. Fac. for Micro threshold ....   0.100
   Minimum threshold for Micro iter.    ....   0.010
   NR start threshold (gradient norm)   ....   0.001
   Initial trust radius                 ....   0.400
   Minimum AH scaling param. (alpha)    ....   1.000
   Maximum AH scaling param. (alpha)    .... 1000.000
   Orbital update algorithm             .... Taylor
   White noise on init. David. guess    .... on
   Maximum white noise                  ....   0.010
   Quad. conv. algorithm                .... NR
   COSX micro iterations for RIJONX calc.... off
 SOSCF                  CNVSOSCF        .... on
   Start iteration      SOSCFMaxIt      ....   150
   Startup grad/error   SOSCFStart      ....  0.003300
 Level Shifting         CNVShift        .... on
   Level shift para.    LevelShift      ....    0.2500
   Turn off err/grad.   ShiftErr        ....    0.0010
 Zerner damping         CNVZerner       .... off
 Static damping         CNVDamp         .... on
   Fraction old density DampFac         ....    0.7000
   Max. Damping (<1)    DampMax         ....    0.9800
   Min. Damping (>=0)   DampMin         ....    0.0000
   Turn off err/grad.   DampErr         ....    0.1000
 Fernandez-Rico         CNVRico         .... off

SCF Procedure:
 Maximum # iterations   MaxIter         ....   125
 SCF integral mode      SCFMode         .... Direct
   Integral package                     .... SHARK and LIBINT hybrid scheme
 Reset frequency        DirectResetFreq ....    20
 Integral Threshold     Thresh          ....  2.500e-11 Eh
 Primitive CutOff       TCut            ....  2.500e-12 Eh

Convergence Tolerance:
 Convergence Check Mode ConvCheckMode   .... Total+1el-Energy
 Convergence forced     ConvForced      .... 0
 Energy Change          TolE            ....  1.000e-08 Eh
 1-El. energy change                    ....  1.000e-05 Eh
 Orbital Gradient       TolG            ....  1.000e-05
 Orbital Rotation angle TolX            ....  1.000e-05
 DIIS Error             TolErr          ....  5.000e-07


Diagonalization of the overlap matrix:
Smallest eigenvalue                        ... 1.799e-05
Time for diagonalization                   ...    0.180 sec
Threshold for overlap eigenvalues          ... 1.000e-08
Number of eigenvalues below threshold      ... 0
Time for construction of square roots      ...    0.108 sec
Total time needed                          ...    0.294 sec

---------------------
INITIAL GUESS: MOREAD
---------------------
Guess MOs are being read from file: /beegfs/si93yaq/projekte/01_daza/02_4ethoxy/20_prot_addition/01_tsopt_irc_endopt_no_iterative/redund/qm_calcs/irc_000.023.orca.gbw
Input Geometry matches current geometry (good)
Input basis set matches current basis set (good)
MOs were renormalized
MOs were reorthogonalized (Cholesky)
                      ------------------
                      INITIAL GUESS DONE (   0.7 sec)
                      ------------------
-------------------
DFT GRID GENERATION
-------------------

General Integration Accuracy     IntAcc      ... 4.388
Radial Grid Type                 RadialGrid  ... OptM3 with GC (2021)
Angular Grid (max. ang.)         AngularGrid ... 4 (Lebedev-302)
Angular grid pruning method      GridPruning ... 4 (adaptive)
Weight generation scheme         WeightScheme... Becke
Basis function cutoff            BFCut       ... 1.0000e-11
Integration weight cutoff        WCut        ... 1.0000e-14
Angular grids for H and He will be reduced by one unit
Partially contracted basis set               ... off
Rotationally invariant grid construction     ... off

Total number of grid points                  ...   381448
Total number of batches                      ...     6003
Average number of points per batch           ...       63
Average number of grid points per atom       ...     4596
Time for grid setup =    2.437 sec

--------------
SCF ITERATIONS
--------------
ITER       Energy         Delta-E        Max-DP      RMS-DP      [F,P]     Damp
               ***  Starting incremental Fock matrix formation  ***
                      *** Initiating the SOSCF procedure ***
                      *** Re-Reading the Fockian *** 
                      *** Removing any level shift *** 
ITER      Energy       Delta-E        Grad      Rot      Max-DP    RMS-DP
  0  -1934.49228753 -1934.4922875339  0.000002  0.000002  0.000222  0.000001
               *** Restarting incremental Fock matrix formation ***
                  ***Gradient check signals convergence***
              ***Rediagonalizing the Fockian in SOSCF/NRSCF***

               *****************************************************
               *                     SUCCESS                       *
               *           SCF CONVERGED AFTER   1 CYCLES          *
               *****************************************************


----------------
TOTAL SCF ENERGY
----------------

Total Energy       :        -1934.49228753 Eh          -52640.21132 eV

Components:
Nuclear Repulsion  :         4867.16212996 Eh          132442.21479 eV
Electronic Energy  :        -6801.65441749 Eh         -185082.42611 eV
One Electron Energy:       -12321.45068554 Eh         -335283.71865 eV
Two Electron Energy:         5519.79626804 Eh          150201.29254 eV

Virial components:
Potential Energy   :        -3860.31439628 Eh         -105044.49508 eV
Kinetic Energy     :         1925.82210875 Eh           52404.28376 eV
Virial Ratio       :            2.00450207


DFT components:
N(Alpha)           :      155.000257794083 electrons
N(Beta)            :      155.000257794083 electrons
N(Total)           :      310.000515588165 electrons
E(X)               :     -259.178860628016 Eh       
E(C)               :      -10.150703193571 Eh       
E(XC)              :     -269.329563821587 Eh       
DFET-embed. en.    :        0.000000000000 Eh       

---------------
SCF CONVERGENCE
---------------

  Last Energy change         ...   -3.2151e-10  Tolerance :   1.0000e-08
  Last MAX-Density change    ...    2.0916e-04  Tolerance :   1.0000e-07
  Last RMS-Density change    ...    1.0283e-06  Tolerance :   5.0000e-09
  Last Orbital Gradient      ...    1.7696e-06  Tolerance :   1.0000e-05
  Last Orbital Rotation      ...    1.2414e-05  Tolerance :   1.0000e-05

             **** THE GBW FILE WAS UPDATED (orca.gbw) ****
             **** DENSITY orca.scfp WAS UPDATED ****
             **** ENERGY FILE WAS UPDATED (orca.en.tmp) ****
             **** THE GBW FILE WAS UPDATED (orca.gbw) ****
             **** DENSITY orca.scfp WAS UPDATED ****
----------------
ORBITAL ENERGIES
----------------

  NO   OCC          E(Eh)            E(eV) 
   0   2.0000     -18.991579      -516.7871 
   1   2.0000     -18.985019      -516.6086 
   2   2.0000     -18.982032      -516.5273 
   3   2.0000     -18.974206      -516.3144 
   4   2.0000     -18.964436      -516.0485 
   5   2.0000     -18.963794      -516.0311 
   6   2.0000     -18.963118      -516.0127 
   7   2.0000     -14.171816      -385.6347 
   8   2.0000     -14.166044      -385.4777 
   9   2.0000     -14.150233      -385.0474 
  10   2.0000     -10.129243      -275.6307 
  11   2.0000     -10.106550      -275.0132 
  12   2.0000     -10.102081      -274.8916 
  13   2.0000     -10.099084      -274.8100 
  14   2.0000     -10.098335      -274.7897 
  15   2.0000     -10.097407      -274.7644 
  16   2.0000     -10.094799      -274.6934 
  17   2.0000     -10.094397      -274.6825 
  18   2.0000     -10.093674      -274.6628 
  19   2.0000     -10.091805      -274.6120 
  20   2.0000     -10.088140      -274.5123 
  21   2.0000     -10.076593      -274.1980 
  22   2.0000     -10.068440      -273.9762 
  23   2.0000     -10.054595      -273.5994 
  24   2.0000     -10.051383      -273.5120 
  25   2.0000     -10.051193      -273.5069 
  26   2.0000     -10.050984      -273.5012 
  27   2.0000     -10.050822      -273.4968 
  28   2.0000     -10.045378      -273.3486 
  29   2.0000     -10.042804      -273.2786 
  30   2.0000     -10.038927      -273.1731 
  31   2.0000     -10.036417      -273.1048 
  32   2.0000     -10.036351      -273.1030 
  33   2.0000     -10.032805      -273.0065 
  34   2.0000     -10.032383      -272.9950 
  35   2.0000     -10.032035      -272.9855 
  36   2.0000     -10.031280      -272.9650 
  37   2.0000     -10.030390      -272.9408 
  38   2.0000     -10.027181      -272.8535 
  39   2.0000     -10.026118      -272.8245 
  40   2.0000     -10.025077      -272.7962 
  41   2.0000     -10.021649      -272.7029 
  42   2.0000      -1.037568       -28.2337 
  43   2.0000      -1.030838       -28.0505 
  44   2.0000      -1.028221       -27.9793 
  45   2.0000      -1.027533       -27.9606 
  46   2.0000      -1.017916       -27.6989 
  47   2.0000      -1.016639       -27.6642 
  48   2.0000      -1.001631       -27.2558 
  49   2.0000      -0.909034       -24.7361 
  50   2.0000      -0.888519       -24.1778 
  51   2.0000      -0.866583       -23.5809 
  52   2.0000      -0.823851       -22.4181 
  53   2.0000      -0.819897       -22.3105 
  54   2.0000      -0.814176       -22.1549 
  55   2.0000      -0.762733       -20.7550 
  56   2.0000      -0.751637       -20.4531 
  57   2.0000      -0.747113       -20.3300 
  58   2.0000      -0.741904       -20.1882 
  59   2.0000      -0.722232       -19.6529 
  60   2.0000      -0.717864       -19.5341 
  61   2.0000      -0.714901       -19.4534 
  62   2.0000      -0.711381       -19.3577 
  63   2.0000      -0.710402       -19.3310 
  64   2.0000      -0.703947       -19.1554 
  65   2.0000      -0.685905       -18.6644 
  66   2.0000      -0.655948       -17.8492 
  67   2.0000      -0.642192       -17.4749 
  68   2.0000      -0.640308       -17.4237 
  69   2.0000      -0.627319       -17.0702 
  70   2.0000      -0.611290       -16.6341 
  71   2.0000      -0.604557       -16.4508 
  72   2.0000      -0.588486       -16.0135 
  73   2.0000      -0.584594       -15.9076 
  74   2.0000      -0.580608       -15.7991 
  75   2.0000      -0.575807       -15.6685 
  76   2.0000      -0.565241       -15.3810 
  77   2.0000      -0.560253       -15.2453 
  78   2.0000      -0.549705       -14.9582 
  79   2.0000      -0.543603       -14.7922 
  80   2.0000      -0.527767       -14.3613 
  81   2.0000      -0.514468       -13.9994 
  82   2.0000      -0.508652       -13.8411 
  83   2.0000      -0.507771       -13.8172 
  84   2.0000      -0.498840       -13.5741 
  85   2.0000      -0.485988       -13.2244 
  86   2.0000      -0.485706       -13.2167 
  87   2.0000      -0.482600       -13.1322 
  88   2.0000      -0.474576       -12.9139 
  89   2.0000      -0.466632       -12.6977 
  90   2.0000      -0.462936       -12.5971 
  91   2.0000      -0.455839       -12.4040 
  92   2.0000      -0.452133       -12.3032 
  93   2.0000      -0.444832       -12.1045 
  94   2.0000      -0.442533       -12.0419 
  95   2.0000      -0.439074       -11.9478 
  96   2.0000      -0.434519       -11.8239 
  97   2.0000      -0.427365       -11.6292 
  98   2.0000      -0.423521       -11.5246 
  99   2.0000      -0.422902       -11.5078 
 100   2.0000      -0.421008       -11.4562 
 101   2.0000      -0.412737       -11.2311 
 102   2.0000      -0.411069       -11.1857 
 103   2.0000      -0.407947       -11.1008 
 104   2.0000      -0.406037       -11.0488 
 105   2.0000      -0.405394       -11.0313 
 106   2.0000      -0.402398       -10.9498 
 107   2.0000      -0.399902       -10.8819 
 108   2.0000      -0.394943       -10.7469 
 109   2.0000      -0.392813       -10.6890 
 110   2.0000      -0.387824       -10.5532 
 111   2.0000      -0.382045       -10.3960 
 112   2.0000      -0.379567       -10.3285 
 113   2.0000      -0.378350       -10.2954 
 114   2.0000      -0.375307       -10.2126 
 115   2.0000      -0.372998       -10.1498 
 116   2.0000      -0.371196       -10.1008 
 117   2.0000      -0.368034       -10.0147 
 118   2.0000      -0.364399        -9.9158 
 119   2.0000      -0.362953        -9.8765 
 120   2.0000      -0.358991        -9.7687 
 121   2.0000      -0.355422        -9.6715 
 122   2.0000      -0.350843        -9.5469 
 123   2.0000      -0.348882        -9.4936 
 124   2.0000      -0.344709        -9.3800 
 125   2.0000      -0.342756        -9.3269 
 126   2.0000      -0.340706        -9.2711 
 127   2.0000      -0.338132        -9.2010 
 128   2.0000      -0.333285        -9.0691 
 129   2.0000      -0.331569        -9.0225 
 130   2.0000      -0.327955        -8.9241 
 131   2.0000      -0.326034        -8.8718 
 132   2.0000      -0.324384        -8.8269 
 133   2.0000      -0.321597        -8.7511 
 134   2.0000      -0.317513        -8.6400 
 135   2.0000      -0.313407        -8.5282 
 136   2.0000      -0.308612        -8.3978 
 137   2.0000      -0.303727        -8.2648 
 138   2.0000      -0.298887        -8.1331 
 139   2.0000      -0.295509        -8.0412 
 140   2.0000      -0.294143        -8.0040 
 141   2.0000      -0.291874        -7.9423 
 142   2.0000      -0.282564        -7.6889 
 143   2.0000      -0.274501        -7.4696 
 144   2.0000      -0.270578        -7.3628 
 145   2.0000      -0.256620        -6.9830 
 146   2.0000      -0.241751        -6.5784 
 147   2.0000      -0.217279        -5.9125 
 148   2.0000      -0.213277        -5.8036 
 149   2.0000      -0.212451        -5.7811 
 150   2.0000      -0.208498        -5.6735 
 151   2.0000      -0.200654        -5.4601 
 152   2.0000      -0.191647        -5.2150 
 153   2.0000      -0.188552        -5.1308 
 154   2.0000      -0.173756        -4.7281 
 155   0.0000      -0.071033        -1.9329 
 156   0.0000      -0.035407        -0.9635 
 157   0.0000      -0.027219        -0.7407 
 158   0.0000      -0.025755        -0.7008 
 159   0.0000      -0.016242        -0.4420 
 160   0.0000      -0.009952        -0.2708 
 161   0.0000       0.017692         0.4814 
 162   0.0000       0.042373         1.1530 
 163   0.0000       0.057237         1.5575 
 164   0.0000       0.059378         1.6158 
 165   0.0000       0.061668         1.6781 
 166   0.0000       0.067652         1.8409 
 167   0.0000       0.068761         1.8711 
 168   0.0000       0.073732         2.0063 
 169   0.0000       0.077078         2.0974 
 170   0.0000       0.081207         2.2098 
 171   0.0000       0.083965         2.2848 
 172   0.0000       0.084710         2.3051 
 173   0.0000       0.087984         2.3942 
 174   0.0000       0.090690         2.4678 
 175   0.0000       0.095612         2.6017 
 176   0.0000       0.098822         2.6891 
 177   0.0000       0.100058         2.7227 
 178   0.0000       0.105686         2.8759 
 179   0.0000       0.106589         2.9004 
 180   0.0000       0.111224         3.0266 
 181   0.0000       0.113863         3.0984 
 182   0.0000       0.114474         3.1150 
 183   0.0000       0.115509         3.1432 
 184   0.0000       0.119657         3.2560 
 185   0.0000       0.121740         3.3127 
 186   0.0000       0.121964         3.3188 
 187   0.0000       0.123687         3.3657 
 188   0.0000       0.128378         3.4933 
 189   0.0000       0.128702         3.5022 
 190   0.0000       0.130359         3.5473 
 191   0.0000       0.132613         3.6086 
 192   0.0000       0.134675         3.6647 
 193   0.0000       0.135460         3.6860 
 194   0.0000       0.138827         3.7777 
 195   0.0000       0.139798         3.8041 
 196   0.0000       0.144574         3.9341 
 197   0.0000       0.145523         3.9599 
 198   0.0000       0.150001         4.0817 
 199   0.0000       0.151597         4.1252 
 200   0.0000       0.154737         4.2106 
 201   0.0000       0.156271         4.2523 
 202   0.0000       0.160330         4.3628 
 203   0.0000       0.162174         4.4130 
 204   0.0000       0.163464         4.4481 
 205   0.0000       0.165425         4.5014 
 206   0.0000       0.167841         4.5672 
 207   0.0000       0.168723         4.5912 
 208   0.0000       0.170456         4.6383 
 209   0.0000       0.173481         4.7207 
 210   0.0000       0.176440         4.8012 
 211   0.0000       0.176753         4.8097 
 212   0.0000       0.177788         4.8379 
 213   0.0000       0.180552         4.9131 
 214   0.0000       0.181693         4.9441 
 215   0.0000       0.182954         4.9784 
 216   0.0000       0.188278         5.1233 
 217   0.0000       0.191027         5.1981 
 218   0.0000       0.191725         5.2171 
 219   0.0000       0.194812         5.3011 
 220   0.0000       0.196546         5.3483 
 221   0.0000       0.198005         5.3880 
 222   0.0000       0.201807         5.4915 
 223   0.0000       0.202943         5.5224 
 224   0.0000       0.203847         5.5470 
 225   0.0000       0.208085         5.6623 
 226   0.0000       0.208939         5.6855 
 227   0.0000       0.210920         5.7394 
 228   0.0000       0.213852         5.8192 
 229   0.0000       0.214329         5.8322 
 230   0.0000       0.218031         5.9329 
 231   0.0000       0.220515         6.0005 
 232   0.0000       0.221873         6.0375 
 233   0.0000       0.223058         6.0697 
 234   0.0000       0.225082         6.1248 
 235   0.0000       0.227930         6.2023 
 236   0.0000       0.232225         6.3192 
 237   0.0000       0.234540         6.3822 
 238   0.0000       0.236738         6.4420 
 239   0.0000       0.238935         6.5017 
 240   0.0000       0.239946         6.5293 
 241   0.0000       0.243595         6.6286 
 242   0.0000       0.245199         6.6722 
 243   0.0000       0.247856         6.7445 
 244   0.0000       0.249349         6.7851 
 245   0.0000       0.250660         6.8208 
 246   0.0000       0.254708         6.9310 
 247   0.0000       0.255003         6.9390 
 248   0.0000       0.256037         6.9671 
 249   0.0000       0.261376         7.1124 
 250   0.0000       0.264593         7.1999 
 251   0.0000       0.265674         7.2294 
 252   0.0000       0.269543         7.3346 
 253   0.0000       0.271007         7.3745 
 254   0.0000       0.271433         7.3861 
 255   0.0000       0.272900         7.4260 
 256   0.0000       0.276190         7.5155 
 257   0.0000       0.277717         7.5571 
 258   0.0000       0.280256         7.6261 
 259   0.0000       0.284925         7.7532 
 260   0.0000       0.288498         7.8504 
 261   0.0000       0.290732         7.9112 
 262   0.0000       0.294641         8.0176 
 263   0.0000       0.297813         8.1039 
 264   0.0000       0.302456         8.2302 
 265   0.0000       0.304808         8.2942 
 266   0.0000       0.307271         8.3613 
 267   0.0000       0.308230         8.3874 
 268   0.0000       0.311846         8.4858 
 269   0.0000       0.315137         8.5753 
 270   0.0000       0.316865         8.6223 
 271   0.0000       0.319661         8.6984 
 272   0.0000       0.320552         8.7227 
 273   0.0000       0.323093         8.7918 
 274   0.0000       0.325303         8.8519 
 275   0.0000       0.328353         8.9350 
 276   0.0000       0.331205         9.0125 
 277   0.0000       0.333774         9.0824 
 278   0.0000       0.335077         9.1179 
 279   0.0000       0.339181         9.2296 
 280   0.0000       0.340483         9.2650 
 281   0.0000       0.342524         9.3205 
 282   0.0000       0.347488         9.4556 
 283   0.0000       0.349421         9.5082 
 284   0.0000       0.350255         9.5309 
 285   0.0000       0.353614         9.6223 
 286   0.0000       0.356009         9.6875 
 287   0.0000       0.360819         9.8184 
 288   0.0000       0.365602         9.9485 
 289   0.0000       0.369101        10.0437 
 290   0.0000       0.374260        10.1841 
 291   0.0000       0.375888        10.2284 
 292   0.0000       0.377527        10.2730 
 293   0.0000       0.379819        10.3354 
 294   0.0000       0.380971        10.3668 
 295   0.0000       0.382902        10.4193 
 296   0.0000       0.385443        10.4884 
 297   0.0000       0.386589        10.5196 
 298   0.0000       0.389667        10.6034 
 299   0.0000       0.391665        10.6578 
 300   0.0000       0.394877        10.7452 
 301   0.0000       0.396384        10.7862 
 302   0.0000       0.400407        10.8956 
 303   0.0000       0.404504        11.0071 
 304   0.0000       0.406665        11.0659 
 305   0.0000       0.408885        11.1263 
 306   0.0000       0.413219        11.2443 
 307   0.0000       0.415519        11.3068 
 308   0.0000       0.419909        11.4263 
 309   0.0000       0.424143        11.5415 
 310   0.0000       0.426660        11.6100 
 311   0.0000       0.429269        11.6810 
 312   0.0000       0.433907        11.8072 
 313   0.0000       0.435633        11.8542 
 314   0.0000       0.438145        11.9225 
 315   0.0000       0.441067        12.0020 
 316   0.0000       0.441684        12.0188 
 317   0.0000       0.445906        12.1337 
 318   0.0000       0.449218        12.2239 
 319   0.0000       0.449623        12.2349 
 320   0.0000       0.452449        12.3118 
 321   0.0000       0.455247        12.3879 
 322   0.0000       0.456693        12.4272 
 323   0.0000       0.458825        12.4853 
 324   0.0000       0.462160        12.5760 
 325   0.0000       0.463464        12.6115 
 326   0.0000       0.467347        12.7172 
 327   0.0000       0.473208        12.8767 
 328   0.0000       0.478895        13.0314 
 329   0.0000       0.480843        13.0844 
 330   0.0000       0.482578        13.1316 
 331   0.0000       0.488912        13.3040 
 332   0.0000       0.492532        13.4025 
 333   0.0000       0.500445        13.6178 
 334   0.0000       0.503242        13.6939 
 335   0.0000       0.510078        13.8799 
 336   0.0000       0.511433        13.9168 
 337   0.0000       0.516848        14.0641 
 338   0.0000       0.519407        14.1338 
 339   0.0000       0.522174        14.2091 
 340   0.0000       0.526305        14.3215 
 341   0.0000       0.531394        14.4600 
 342   0.0000       0.532531        14.4909 
 343   0.0000       0.535829        14.5807 
 344   0.0000       0.541645        14.7389 
 345   0.0000       0.543770        14.7967 
 346   0.0000       0.547486        14.8979 
 347   0.0000       0.547998        14.9118 
 348   0.0000       0.553121        15.0512 
 349   0.0000       0.557345        15.1661 
 350   0.0000       0.560698        15.2574 
 351   0.0000       0.561377        15.2759 
 352   0.0000       0.564893        15.3715 
 353   0.0000       0.569951        15.5092 
 354   0.0000       0.571321        15.5464 
 355   0.0000       0.572321        15.5737 
 356   0.0000       0.573183        15.5971 
 357   0.0000       0.576810        15.6958 
 358   0.0000       0.580804        15.8045 
 359   0.0000       0.583338        15.8734 
 360   0.0000       0.585340        15.9279 
 361   0.0000       0.588997        16.0274 
 362   0.0000       0.591344        16.0913 
 363   0.0000       0.594625        16.1806 
 364   0.0000       0.596600        16.2343 
 365   0.0000       0.600073        16.3288 
 366   0.0000       0.606062        16.4918 
 367   0.0000       0.606392        16.5008 
 368   0.0000       0.611421        16.6376 
 369   0.0000       0.614113        16.7109 
 370   0.0000       0.615505        16.7487 
 371   0.0000       0.617754        16.8099 
 372   0.0000       0.624368        16.9899 
 373   0.0000       0.625741        17.0273 
 374   0.0000       0.627658        17.0794 
 375   0.0000       0.632178        17.2024 
 376   0.0000       0.637002        17.3337 
 377   0.0000       0.639924        17.4132 
 378   0.0000       0.641081        17.4447 
 379   0.0000       0.645397        17.5621 
 380   0.0000       0.650381        17.6978 
 381   0.0000       0.654298        17.8044 
 382   0.0000       0.656472        17.8635 
 383   0.0000       0.663534        18.0557 
 384   0.0000       0.667382        18.1604 
 385   0.0000       0.668737        18.1973 
 386   0.0000       0.670542        18.2464 
 387   0.0000       0.671358        18.2686 
 388   0.0000       0.676279        18.4025 
 389   0.0000       0.677404        18.4331 
 390   0.0000       0.679561        18.4918 
 391   0.0000       0.684479        18.6256 
 392   0.0000       0.691350        18.8126 
 393   0.0000       0.693631        18.8747 
 394   0.0000       0.697357        18.9761 
 395   0.0000       0.698917        19.0185 
 396   0.0000       0.700020        19.0485 
 397   0.0000       0.706063        19.2130 
 398   0.0000       0.710019        19.3206 
 399   0.0000       0.711395        19.3581 
 400   0.0000       0.714186        19.4340 
 401   0.0000       0.715874        19.4799 
 402   0.0000       0.720058        19.5938 
 403   0.0000       0.726548        19.7704 
 404   0.0000       0.730191        19.8695 
 405   0.0000       0.733165        19.9504 
 406   0.0000       0.736750        20.0480 
 407   0.0000       0.737895        20.0791 
 408   0.0000       0.744420        20.2567 
 409   0.0000       0.745563        20.2878 
 410   0.0000       0.751997        20.4629 
 411   0.0000       0.758682        20.6448 
 412   0.0000       0.761147        20.7119 
 413   0.0000       0.764768        20.8104 
 414   0.0000       0.771647        20.9976 
 415   0.0000       0.775314        21.0974 
 416   0.0000       0.782862        21.3028 
 417   0.0000       0.787174        21.4201 
 418   0.0000       0.792459        21.5639 
 419   0.0000       0.799042        21.7431 
 420   0.0000       0.801892        21.8206 
 421   0.0000       0.805504        21.9189 
 422   0.0000       0.813356        22.1326 
 423   0.0000       0.823092        22.3975 
 424   0.0000       0.833100        22.6698 
 425   0.0000       0.838837        22.8259 
 426   0.0000       0.841885        22.9088 
 427   0.0000       0.850858        23.1530 
 428   0.0000       0.855341        23.2750 
 429   0.0000       0.858953        23.3733 
 430   0.0000       0.865800        23.5596 
 431   0.0000       0.869705        23.6659 
 432   0.0000       0.871263        23.7083 
 433   0.0000       0.877442        23.8764 
 434   0.0000       0.880119        23.9493 
 435   0.0000       0.886028        24.1100 
 436   0.0000       0.888628        24.1808 
 437   0.0000       0.898874        24.4596 
 438   0.0000       0.907836        24.7035 
 439   0.0000       0.913184        24.8490 
 440   0.0000       0.920862        25.0579 
 441   0.0000       0.925578        25.1863 
 442   0.0000       0.928663        25.2702 
 443   0.0000       0.944263        25.6947 
 444   0.0000       0.946280        25.7496 
 445   0.0000       0.961311        26.1586 
 446   0.0000       0.965642        26.2765 
 447   0.0000       0.973842        26.4996 
 448   0.0000       0.983385        26.7593 
 449   0.0000       0.989246        26.9188 
 450   0.0000       0.990830        26.9619 
 451   0.0000       0.996935        27.1280 
 452   0.0000       1.002393        27.2765 
 453   0.0000       1.010122        27.4868 
 454   0.0000       1.025029        27.8924 
 455   0.0000       1.033165        28.1139 
 456   0.0000       1.037049        28.2195 
 457   0.0000       1.039390        28.2832 
 458   0.0000       1.041929        28.3523 
 459   0.0000       1.043697        28.4004 
 460   0.0000       1.048666        28.5357 
 461   0.0000       1.055251        28.7148 
 462   0.0000       1.059880        28.8408 
 463   0.0000       1.062771        28.9195 
 464   0.0000       1.065887        29.0043 
 465   0.0000       1.066715        29.0268 
 466   0.0000       1.070561        29.1314 
 467   0.0000       1.074498        29.2386 
 468   0.0000       1.077248        29.3134 
 469   0.0000       1.090408        29.6715 
 470   0.0000       1.099283        29.9130 
 471   0.0000       1.110795        30.2263 
 472   0.0000       1.111266        30.2391 
 473   0.0000       1.116892        30.3922 
 474   0.0000       1.121709        30.5233 
 475   0.0000       1.123343        30.5677 
 476   0.0000       1.126292        30.6480 
 477   0.0000       1.129053        30.7231 
 478   0.0000       1.131582        30.7919 
 479   0.0000       1.137834        30.9620 
 480   0.0000       1.142369        31.0854 
 481   0.0000       1.152978        31.3741 
 482   0.0000       1.161212        31.5982 
 483   0.0000       1.171690        31.8833 
 484   0.0000       1.178495        32.0685 
 485   0.0000       1.180896        32.1338 
 486   0.0000       1.186085        32.2750 
 487   0.0000       1.193187        32.4683 
 488   0.0000       1.194027        32.4911 
 489   0.0000       1.205087        32.7921 
 490   0.0000       1.219105        33.1735 
 491   0.0000       1.227299        33.3965 
 492   0.0000       1.232934        33.5498 
 493   0.0000       1.238117        33.6909 
 494   0.0000       1.241543        33.7841 
 495   0.0000       1.245389        33.8887 
 496   0.0000       1.250129        34.0177 
 497   0.0000       1.255997        34.1774 
 498   0.0000       1.257219        34.2107 
 499   0.0000       1.262000        34.3408 
 500   0.0000       1.275174        34.6993 
 501   0.0000       1.277083        34.7512 
 502   0.0000       1.278956        34.8022 
 503   0.0000       1.286403        35.0048 
[...]
 190:   1493.79   0.000154  ( 0.002958  0.002605 -0.011772)
 191:   1494.06   0.000148  ( 0.011463 -0.003176  0.002496)
 192:   1497.58   0.000322  (-0.008587  0.015743  0.000452)
 193:   1506.62   0.001787  (-0.019674 -0.033028  0.017575)
 194:   1508.67   0.000777  ( 0.000190 -0.027581 -0.004029)
 195:   1510.92   0.000193  ( 0.001404 -0.010234 -0.009272)
 196:   1511.08   0.001220  (-0.009989 -0.030362  0.014089)
 197:   1511.81   0.000237  ( 0.006705 -0.002511  0.013630)
 198:   1541.75   0.005879  ( 0.071530 -0.011601 -0.025057)
 199:   1545.02   0.010862  (-0.103197  0.007419 -0.012538)
 200:   1547.16   0.005481  ( 0.030261  0.061262 -0.028492)
 201:   1608.39   0.003090  (-0.017637 -0.003621  0.052593)
 202:   1620.71   0.006478  ( 0.043125 -0.066360  0.014649)
 203:   1624.96   0.002988  ( 0.001539  0.007434  0.054136)
 204:   1651.64   0.006787  ( 0.076036 -0.019059 -0.025348)
 205:   1658.96   0.018786  ( 0.132915  0.000035  0.033460)
 206:   1666.51   0.009508  ( 0.072923  0.057874 -0.029004)
 207:   1673.63   0.016009  ( 0.125525 -0.009779 -0.012532)
 208:   2915.88   0.000910  (-0.021090  0.018804 -0.010573)
 209:   2924.26   0.000257  ( 0.003310 -0.014336 -0.006391)
 210:   2925.59   0.001256  (-0.021497 -0.012854  0.025067)
 211:   2958.68   0.000660  (-0.000151 -0.004777  0.025245)
 212:   2971.91   0.001874  ( 0.034242  0.003092 -0.026307)
 213:   2978.47   0.003149  (-0.042039 -0.001882  0.037118)
 214:   2994.50   0.001111  (-0.021372 -0.023743 -0.009534)
 215:   3000.67   0.000186  ( 0.001597  0.013426 -0.001886)
 216:   3002.44   0.000635  (-0.022566  0.010506  0.003876)
 217:   3008.39   0.000699  ( 0.015739  0.020887 -0.003926)
 218:   3013.85   0.000782  (-0.004780 -0.009434  0.025894)
 219:   3018.85   0.000938  ( 0.022685  0.016242  0.012644)
 220:   3024.11   0.000319  ( 0.006422  0.015843  0.005156)
 221:   3024.57   0.000931  ( 0.025932 -0.014789  0.006304)
 222:   3024.60   0.000287  (-0.013890  0.008192  0.005175)
 223:   3026.32   0.013475  ( 0.110539  0.001851 -0.035400)
 224:   3034.50   0.000651  ( 0.008798 -0.008762  0.022280)
 225:   3052.04   0.000292  (-0.011572  0.003513  0.012074)
 226:   3070.22   0.000073  (-0.007279  0.004121  0.001863)
 227:   3080.93   0.000283  (-0.013560  0.003131  0.009447)
 228:   3081.68   0.000267  (-0.015043 -0.004860  0.004185)
 229:   3084.45   0.000211  (-0.013088 -0.001511  0.006105)
 230:   3088.24   0.000317  ( 0.016753 -0.002885  0.005328)
 231:   3110.85   0.000392  (-0.004732 -0.012735  0.014406)
 232:   3111.27   0.000311  (-0.014438 -0.010073 -0.001230)
 233:   3111.81   0.000424  (-0.017647 -0.005460 -0.009120)
 234:   3123.63   0.000395  ( 0.018307  0.007672  0.001023)
 235:   3123.69   0.000612  ( 0.020297 -0.007374 -0.012086)
 236:   3123.78   0.000409  ( 0.016869 -0.001171 -0.011110)
 237:   3146.82   0.000085  ( 0.008104 -0.004043  0.001757)
 238:   3155.86   0.000139  (-0.004534 -0.000259  0.010892)
 239:   3164.60   0.000086  ( 0.008194  0.003374  0.002668)
 240:   3191.33   0.001705  ( 0.035551  0.017864 -0.011068)
 241:   3192.20   0.012717  (-0.101303 -0.046794  0.016267)
 242:   3198.03   0.000053  ( 0.004031 -0.003769 -0.004778)
 243:   3199.17   0.000106  (-0.009796 -0.003034  0.000807)
 244:   3204.96   0.000005  (-0.002097  0.000266 -0.000480)
 245:   3213.93   0.000189  (-0.007585 -0.010858  0.003707)
 246:   3217.65   0.000140  (-0.011068  0.001585 -0.003821)
 247:   3539.38   0.003204  ( 0.022575  0.031851  0.040992)
 248:   3740.31   0.004083  (-0.012381 -0.057658 -0.024592)

* The epsilon (eps) is given for a Dirac delta lineshape.
** The dipole moment derivative (T) already includes vibrational overlap.

The first frequency considered to be a vibration is 7
The total number of vibrations considered is 242


--------------------------
THERMOCHEMISTRY AT 298.15K
--------------------------

Temperature         ... 298.15 K
Pressure            ... 1.00 atm
Total Mass          ... 579.69 AMU

Throughout the following assumptions are being made:
  (1) The electronic state is orbitally nondegenerate
  (2) There are no thermally accessible electronically excited states
  (3) Hindered rotations indicated by low frequency modes are not
      treated as such but are treated as vibrations and this may
      cause some error
  (4) All equations used are the standard statistical mechanics
      equations for an ideal gas
  (5) All vibrations are strictly harmonic

freq.       7.66  E(vib)   ...       0.58 
freq.      13.46  E(vib)   ...       0.57 
freq.      18.24  E(vib)   ...       0.57 
freq.      18.55  E(vib)   ...       0.57 
freq.      30.43  E(vib)   ...       0.55 
freq.      32.97  E(vib)   ...       0.55 
freq.      36.76  E(vib)   ...       0.54 
freq.      43.48  E(vib)   ...       0.53 
freq.      50.02  E(vib)   ...       0.52 
freq.      55.85  E(vib)   ...       0.52 
freq.      68.39  E(vib)   ...       0.50 
freq.      74.99  E(vib)   ...       0.49 
freq.      81.55  E(vib)   ...       0.48 
freq.      88.47  E(vib)   ...       0.48 
freq.     104.15  E(vib)   ...       0.46 
freq.     109.38  E(vib)   ...       0.45 
freq.     113.31  E(vib)   ...       0.45 
freq.     128.44  E(vib)   ...       0.43 
freq.     145.21  E(vib)   ...       0.41 
freq.     154.54  E(vib)   ...       0.40 
freq.     167.03  E(vib)   ...       0.39 
freq.     184.78  E(vib)   ...       0.37 
freq.     189.18  E(vib)   ...       0.36 
freq.     192.17  E(vib)   ...       0.36 
freq.     203.25  E(vib)   ...       0.35 
freq.     212.03  E(vib)   ...       0.34 
freq.     219.40  E(vib)   ...       0.33 
freq.     222.68  E(vib)   ...       0.33 
freq.     229.80  E(vib)   ...       0.32 
freq.     233.80  E(vib)   ...       0.32 
freq.     248.31  E(vib)   ...       0.31 
freq.     257.43  E(vib)   ...       0.30 
freq.     266.44  E(vib)   ...       0.29 
freq.     277.54  E(vib)   ...       0.28 
freq.     279.68  E(vib)   ...       0.28 
freq.     303.62  E(vib)   ...       0.26 
freq.     316.78  E(vib)   ...       0.25 
freq.     328.72  E(vib)   ...       0.24 
freq.     336.90  E(vib)   ...       0.24 
freq.     345.08  E(vib)   ...       0.23 
freq.     348.60  E(vib)   ...       0.23 
freq.     355.14  E(vib)   ...       0.22 
freq.     369.06  E(vib)   ...       0.21 
freq.     374.08  E(vib)   ...       0.21 
freq.     390.53  E(vib)   ...       0.20 
freq.     406.64  E(vib)   ...       0.19 
freq.     414.25  E(vib)   ...       0.19 
freq.     424.67  E(vib)   ...       0.18 
freq.     439.55  E(vib)   ...       0.17 
freq.     447.37  E(vib)   ...       0.17 
freq.     453.81  E(vib)   ...       0.16 
freq.     457.80  E(vib)   ...       0.16 
freq.     465.04  E(vib)   ...       0.16 
freq.     470.41  E(vib)   ...       0.15 
freq.     474.82  E(vib)   ...       0.15 
freq.     490.76  E(vib)   ...       0.14 
freq.     492.76  E(vib)   ...       0.14 
freq.     508.70  E(vib)   ...       0.14 
freq.     529.18  E(vib)   ...       0.13 
freq.     536.80  E(vib)   ...       0.12 
freq.     562.60  E(vib)   ...       0.11 
freq.     567.00  E(vib)   ...       0.11 
freq.     576.10  E(vib)   ...       0.11 
freq.     580.29  E(vib)   ...       0.11 
freq.     591.21  E(vib)   ...       0.10 
freq.     602.58  E(vib)   ...       0.10 
freq.     610.95  E(vib)   ...       0.10 
freq.     628.58  E(vib)   ...       0.09 
freq.     635.08  E(vib)   ...       0.09 
freq.     642.45  E(vib)   ...       0.09 
freq.     649.23  E(vib)   ...       0.08 
freq.     655.62  E(vib)   ...       0.08 
freq.     665.34  E(vib)   ...       0.08 
freq.     719.62  E(vib)   ...       0.07 
freq.     724.22  E(vib)   ...       0.06 
freq.     731.68  E(vib)   ...       0.06 
freq.     739.72  E(vib)   ...       0.06 
freq.     746.69  E(vib)   ...       0.06 
freq.     749.29  E(vib)   ...       0.06 
freq.     766.75  E(vib)   ...       0.06 
freq.     781.23  E(vib)   ...       0.05 
freq.     786.44  E(vib)   ...       0.05 
freq.     791.07  E(vib)   ...       0.05 
freq.     806.94  E(vib)   ...       0.05 
freq.     815.77  E(vib)   ...       0.05 
freq.     819.76  E(vib)   ...       0.05 
freq.     820.33  E(vib)   ...       0.05 
freq.     822.98  E(vib)   ...       0.05 
freq.     826.43  E(vib)   ...       0.04 
freq.     833.54  E(vib)   ...       0.04 
freq.     845.46  E(vib)   ...       0.04 
freq.     857.24  E(vib)   ...       0.04 
freq.     858.93  E(vib)   ...       0.04 
freq.     882.37  E(vib)   ...       0.04 
freq.     892.44  E(vib)   ...       0.03 
freq.     893.41  E(vib)   ...       0.03 
freq.     897.39  E(vib)   ...       0.03 
freq.     901.53  E(vib)   ...       0.03 
freq.     907.01  E(vib)   ...       0.03 
freq.     918.61  E(vib)   ...       0.03 
freq.     925.79  E(vib)   ...       0.03 
freq.     929.39  E(vib)   ...       0.03 
freq.     943.52  E(vib)   ...       0.03 
freq.     952.13  E(vib)   ...       0.03 
freq.     964.66  E(vib)   ...       0.03 
freq.     975.81  E(vib)   ...       0.03 
freq.     982.23  E(vib)   ...       0.02 
freq.     985.11  E(vib)   ...       0.02 
freq.     988.11  E(vib)   ...       0.02 
freq.     995.25  E(vib)   ...       0.02 
freq.    1005.24  E(vib)   ...       0.02 
freq.    1036.75  E(vib)   ...       0.02 
freq.    1039.65  E(vib)   ...       0.02 
freq.    1054.88  E(vib)   ...       0.02 
freq.    1057.83  E(vib)   ...       0.02 
freq.    1058.06  E(vib)   ...       0.02 
freq.    1075.55  E(vib)   ...       0.02 
freq.    1100.42  E(vib)   ...       0.02 
freq.    1110.03  E(vib)   ...       0.02 
freq.    1110.16  E(vib)   ...       0.02 
freq.    1110.86  E(vib)   ...       0.01 
freq.    1119.14  E(vib)   ...       0.01 
freq.    1127.94  E(vib)   ...       0.01 
freq.    1141.00  E(vib)   ...       0.01 
freq.    1161.31  E(vib)   ...       0.01 
freq.    1165.03  E(vib)   ...       0.01 
freq.    1172.42  E(vib)   ...       0.01 
freq.    1180.14  E(vib)   ...       0.01 
freq.    1180.89  E(vib)   ...       0.01 
freq.    1181.56  E(vib)   ...       0.01 
freq.    1188.01  E(vib)   ...       0.01 
freq.    1188.39  E(vib)   ...       0.01 
freq.    1203.04  E(vib)   ...       0.01 
freq.    1205.06  E(vib)   ...       0.01 
freq.    1209.31  E(vib)   ...       0.01 
freq.    1221.31  E(vib)   ...       0.01 
freq.    1230.38  E(vib)   ...       0.01 
freq.    1244.34  E(vib)   ...       0.01 
freq.    1257.98  E(vib)   ...       0.01 
freq.    1260.23  E(vib)   ...       0.01 
freq.    1261.50  E(vib)   ...       0.01 
freq.    1265.79  E(vib)   ...       0.01 
freq.    1271.31  E(vib)   ...       0.01 
freq.    1281.87  E(vib)   ...       0.01 
freq.    1299.90  E(vib)   ...       0.01 
freq.    1307.40  E(vib)   ...       0.01 
freq.    1308.47  E(vib)   ...       0.01 
freq.    1310.41  E(vib)   ...       0.01 
freq.    1315.24  E(vib)   ...       0.01 
freq.    1319.92  E(vib)   ...       0.01 
freq.    1323.86  E(vib)   ...       0.01 
freq.    1328.39  E(vib)   ...       0.01 
freq.    1332.76  E(vib)   ...       0.01 
freq.    1338.50  E(vib)   ...       0.01 
freq.    1344.75  E(vib)   ...       0.01 
freq.    1348.32  E(vib)   ...       0.01 
freq.    1362.62  E(vib)   ...       0.01 
freq.    1369.96  E(vib)   ...       0.01 
freq.    1373.00  E(vib)   ...       0.01 
freq.    1379.32  E(vib)   ...       0.01 
freq.    1380.18  E(vib)   ...       0.01 
freq.    1385.18  E(vib)   ...       0.00 
freq.    1390.25  E(vib)   ...       0.00 
freq.    1392.45  E(vib)   ...       0.00 
freq.    1393.48  E(vib)   ...       0.00 
freq.    1400.82  E(vib)   ...       0.00 
freq.    1407.98  E(vib)   ...       0.00 
freq.    1408.65  E(vib)   ...       0.00 
freq.    1409.54  E(vib)   ...       0.00 
freq.    1412.45  E(vib)   ...       0.00 
freq.    1422.88  E(vib)   ...       0.00 
freq.    1434.23  E(vib)   ...       0.00 
freq.    1438.60  E(vib)   ...       0.00 
freq.    1445.68  E(vib)   ...       0.00 
freq.    1459.35  E(vib)   ...       0.00 
freq.    1476.34  E(vib)   ...       0.00 
freq.    1476.54  E(vib)   ...       0.00 
freq.    1477.31  E(vib)   ...       0.00 
freq.    1478.03  E(vib)   ...       0.00 
freq.    1482.01  E(vib)   ...       0.00 
freq.    1490.04  E(vib)   ...       0.00 
freq.    1492.00  E(vib)   ...       0.00 
freq.    1492.98  E(vib)   ...       0.00 
freq.    1493.79  E(vib)   ...       0.00 
freq.    1494.06  E(vib)   ...       0.00 
freq.    1497.58  E(vib)   ...       0.00 
freq.    1506.62  E(vib)   ...       0.00 
freq.    1508.67  E(vib)   ...       0.00 
freq.    1510.92  E(vib)   ...       0.00 
freq.    1511.08  E(vib)   ...       0.00 
freq.    1511.81  E(vib)   ...       0.00 
freq.    1541.75  E(vib)   ...       0.00 
freq.    1545.02  E(vib)   ...       0.00 
freq.    1547.16  E(vib)   ...       0.00 
freq.    1608.39  E(vib)   ...       0.00 
freq.    1620.71  E(vib)   ...       0.00 
freq.    1624.96  E(vib)   ...       0.00 
freq.    1651.64  E(vib)   ...       0.00 
freq.    1658.96  E(vib)   ...       0.00 
freq.    1666.51  E(vib)   ...       0.00 
freq.    1673.63  E(vib)   ...       0.00 
freq.    2915.88  E(vib)   ...       0.00 
freq.    2924.26  E(vib)   ...       0.00 
freq.    2925.59  E(vib)   ...       0.00 
freq.    2958.68  E(vib)   ...       0.00 
freq.    2971.91  E(vib)   ...       0.00 
freq.    2978.47  E(vib)   ...       0.00 
freq.    2994.50  E(vib)   ...       0.00 
freq.    3000.67  E(vib)   ...       0.00 
freq.    3002.44  E(vib)   ...       0.00 
freq.    3008.39  E(vib)   ...       0.00 
freq.    3013.85  E(vib)   ...       0.00 
freq.    3018.85  E(vib)   ...       0.00 
freq.    3024.11  E(vib)   ...       0.00 
freq.    3024.57  E(vib)   ...       0.00 
freq.    3024.60  E(vib)   ...       0.00 
freq.    3026.32  E(vib)   ...       0.00 
freq.    3034.50  E(vib)   ...       0.00 
freq.    3052.04  E(vib)   ...       0.00 
freq.    3070.22  E(vib)   ...       0.00 
freq.    3080.93  E(vib)   ...       0.00 
freq.    3081.68  E(vib)   ...       0.00 
freq.    3084.45  E(vib)   ...       0.00 
freq.    3088.24  E(vib)   ...       0.00 
freq.    3110.85  E(vib)   ...       0.00 
freq.    3111.27  E(vib)   ...       0.00 
freq.    3111.81  E(vib)   ...       0.00 
freq.    3123.63  E(vib)   ...       0.00 
freq.    3123.69  E(vib)   ...       0.00 
freq.    3123.78  E(vib)   ...       0.00 
freq.    3146.82  E(vib)   ...       0.00 
freq.    3155.86  E(vib)   ...       0.00 
freq.    3164.60  E(vib)   ...       0.00 
freq.    3191.33  E(vib)   ...       0.00 
freq.    3192.20  E(vib)   ...       0.00 
freq.    3198.03  E(vib)   ...       0.00 
freq.    3199.17  E(vib)   ...       0.00 
freq.    3204.96  E(vib)   ...       0.00 
freq.    3213.93  E(vib)   ...       0.00 
freq.    3217.65  E(vib)   ...       0.00 
freq.    3539.38  E(vib)   ...       0.00 
freq.    3740.31  E(vib)   ...       0.00 

------------
INNER ENERGY
------------

The inner energy is: U= E(el) + E(ZPE) + E(vib) + E(rot) + E(trans)
    E(el)   - is the total energy from the electronic structure calculation
              = E(kin-el) + E(nuc-el) + E(el-el) + E(nuc-nuc)
    E(ZPE)  - the the zero temperature vibrational energy from the frequency calculation
    E(vib)  - the the finite temperature correction to E(ZPE) due to population
              of excited vibrational states
    E(rot)  - is the rotational thermal energy
    E(trans)- is the translational thermal energy

Summary of contributions to the inner energy U:
Electronic energy                ...  -1934.47336227 Eh
Zero point energy                ...      0.69306677 Eh     434.91 kcal/mol
Thermal vibrational correction   ...      0.03677881 Eh      23.08 kcal/mol
Thermal rotational correction    ...      0.00141627 Eh       0.89 kcal/mol
Thermal translational correction ...      0.00141627 Eh       0.89 kcal/mol
-----------------------------------------------------------------------
Total thermal energy                  -1933.74068414 Eh


Summary of corrections to the electronic energy:
(perhaps to be used in another calculation)
Total thermal correction                  0.03961136 Eh      24.86 kcal/mol
Non-thermal (ZPE) correction              0.69306677 Eh     434.91 kcal/mol
-----------------------------------------------------------------------
Total correction                          0.73267813 Eh     459.76 kcal/mol


--------
ENTHALPY
--------

The enthalpy is H = U + kB*T
                kB is Boltzmann's constant
Total free energy                 ...  -1933.74068414 Eh 
Thermal Enthalpy correction       ...      0.00094421 Eh       0.59 kcal/mol
-----------------------------------------------------------------------
Total Enthalpy                    ...  -1933.73973993 Eh


Note: Only C1 symmetry has been detected, increase convergence thresholds 
      if your molecule has a higher symmetry. Symmetry factor of 1.0 is   
      used for the rotational entropy correction. 
 

Note: Rotational entropy computed according to Herzberg 
Infrared and Raman Spectra, Chapter V,1, Van Nostrand Reinhold, 1945 
Point Group:  C1, Symmetry Number:   1  
Rotational constants in cm-1:     0.003442     0.001057     0.000866 

Vibrational entropy computed according to the QRRHO of S. Grimme
Chem.Eur.J. 2012 18 9955


-------
ENTROPY
-------

The entropy contributions are T*S = T*(S(el)+S(vib)+S(rot)+S(trans))
     S(el)   - electronic entropy
     S(vib)  - vibrational entropy
     S(rot)  - rotational entropy
     S(trans)- translational entropy
The entropies will be listed as multiplied by the temperature to get
units of energy

Electronic entropy                ...      0.00000000 Eh      0.00 kcal/mol
Vibrational entropy               ...      0.06641450 Eh     41.68 kcal/mol
Rotational entropy                ...      0.01875242 Eh     11.77 kcal/mol
Translational entropy             ...      0.02136010 Eh     13.40 kcal/mol
-----------------------------------------------------------------------
Final entropy term                ...      0.10652701 Eh     66.85 kcal/mol

In case the symmetry of your molecule has not been determined correctly
or in case you have a reason to use a different symmetry number we print 
out the resulting rotational entropy values for sn=1,12 :
 --------------------------------------------------------
|  sn= 1 | S(rot)=       0.01875242 Eh     11.77 kcal/mol|
|  sn= 2 | S(rot)=       0.01809796 Eh     11.36 kcal/mol|
|  sn= 3 | S(rot)=       0.01771513 Eh     11.12 kcal/mol|
|  sn= 4 | S(rot)=       0.01744350 Eh     10.95 kcal/mol|
|  sn= 5 | S(rot)=       0.01723281 Eh     10.81 kcal/mol|
|  sn= 6 | S(rot)=       0.01706067 Eh     10.71 kcal/mol|
|  sn= 7 | S(rot)=       0.01691512 Eh     10.61 kcal/mol|
|  sn= 8 | S(rot)=       0.01678905 Eh     10.54 kcal/mol|
|  sn= 9 | S(rot)=       0.01667784 Eh     10.47 kcal/mol|
|  sn=10 | S(rot)=       0.01657836 Eh     10.40 kcal/mol|
|  sn=11 | S(rot)=       0.01648837 Eh     10.35 kcal/mol|
|  sn=12 | S(rot)=       0.01640621 Eh     10.30 kcal/mol|
 --------------------------------------------------------


-------------------
GIBBS FREE ENERGY
-------------------

The Gibbs free energy is G = H - T*S

Total enthalpy                    ...  -1933.73973993 Eh 
Total entropy correction          ...     -0.10652701 Eh    -66.85 kcal/mol
-----------------------------------------------------------------------
Final Gibbs free energy         ...  -1933.84626695 Eh

For completeness - the Gibbs free energy minus the electronic energy
G-E(el)                           ...      0.62709533 Eh    393.51 kcal/mol


Timings for individual modules:

Sum of individual times         ...     1724.199 sec (=  28.737 min)
GTO integral calculation        ...        1.682 sec (=   0.028 min)   0.1 %
SCF iterations                  ...       10.242 sec (=   0.171 min)   0.6 %
Analytical frequency calculation...     1712.275 sec (=  28.538 min)  99.3 %
                             ****ORCA TERMINATED NORMALLY****
TOTAL RUN TIME: 0 days 0 hours 28 minutes 46 seconds 179 msec
